# vtk DataFile Version 1.0
vtk output
ASCII
DATASET POLYDATA
POINTS 2401 float
35.000000000  0.000000000  0.000000000
34.712699890  4.475699902  0.000000000
34.631198883  4.465199947  1.278769970
34.917900085  0.000000000  1.278769970
34.388301849  4.433879852  2.536550045
34.672901154  0.000000000  2.536550045
33.987800598  4.382239819  3.752670050
34.269199371  0.000000000  3.752670050
33.436401367  4.311150074  4.907179832
33.713199615  0.000000000  4.907179832
32.743099213  4.221749783  5.981110096
33.014099121  0.000000000  5.981110096
31.919300079  4.115530014  6.956830025
32.183498383  0.000000000  6.956830025
30.978500366  3.994230032  7.818319798
31.234899521  0.000000000  7.818319798
29.936100006  3.859829903  8.551429749
30.183900833  0.000000000  8.551429749
28.809400558  3.714550018  9.144129753
29.047800064  0.000000000  9.144129753
27.616699219  3.560770035  9.586680412
27.845300674  0.000000000  9.586680412
26.377599716  3.401020050  9.871820450
26.596000671  0.000000000  9.871820450
25.112600327  3.237920046  9.994859695
25.320499420  0.000000000  9.994859695
23.842399597  3.074140072  9.953789711
24.039800644  0.000000000  9.953789711
22.587799072  2.912379980  9.749279976
22.774799347  0.000000000  9.749279976
21.369499207  2.755290031  9.384679794
21.546300888  0.000000000  9.384679794
20.207300186  2.605449915  8.865989685
20.374599457  0.000000000  8.865989685
19.120599747  2.465320110  8.201720238
19.278799057  0.000000000  8.201720238
18.126899719  2.337209940  7.402780056
18.277000427  0.000000000  7.402780056
17.242799759  2.223210096  6.482279778
17.385499954  0.000000000  6.482279778
16.482700348  2.125210047  5.455349922
16.619100571  0.000000000  5.455349922
15.859000206  2.044800043  4.338840008
15.990300179  0.000000000  4.338840008
15.382100105  1.983299971  3.151079893
15.509400368  0.000000000  3.151079893
15.059700012  1.941740036  1.911589980
15.184399605  0.000000000  1.911589980
14.897199631  1.920779943  0.640702009
15.020500183  0.000000000  0.640702009
14.897199631  1.920779943  -0.640702009
15.020500183  0.000000000  -0.640702009
15.059700012  1.941740036  -1.911589980
15.184399605  0.000000000  -1.911589980
15.382100105  1.983299971  -3.151079893
15.509400368  0.000000000  -3.151079893
15.859000206  2.044800043  -4.338840008
15.990300179  0.000000000  -4.338840008
16.482700348  2.125210047  -5.455349922
16.619100571  0.000000000  -5.455349922
17.242799759  2.223210096  -6.482279778
17.385499954  0.000000000  -6.482279778
18.126899719  2.337209940  -7.402780056
18.277000427  0.000000000  -7.402780056
19.120599747  2.465320110  -8.201720238
19.278799057  0.000000000  -8.201720238
20.207300186  2.605449915  -8.865989685
20.374599457  0.000000000  -8.865989685
21.369499207  2.755290031  -9.384679794
21.546300888  0.000000000  -9.384679794
22.587799072  2.912379980  -9.749279976
22.774799347  0.000000000  -9.749279976
23.842399597  3.074140072  -9.953789711
24.039800644  0.000000000  -9.953789711
25.112600327  3.237920046  -9.994859695
25.320499420  0.000000000  -9.994859695
26.377599716  3.401020050  -9.871820450
26.596000671  0.000000000  -9.871820450
27.616699219  3.560770035  -9.586680412
27.845300674  0.000000000  -9.586680412
28.809400558  3.714550018  -9.144129753
29.047800064  0.000000000  -9.144129753
29.936100006  3.859829903  -8.551429749
30.183900833  0.000000000  -8.551429749
30.978500366  3.994230032  -7.818319798
31.234899521  0.000000000  -7.818319798
31.919300079  4.115530014  -6.956830025
32.183498383  0.000000000  -6.956830025
32.743099213  4.221749783  -5.981110096
33.014099121  0.000000000  -5.981110096
33.436401367  4.311150074  -4.907179832
33.713199615  0.000000000  -4.907179832
33.987800598  4.382239819  -3.752670050
34.269199371  0.000000000  -3.752670050
34.388301849  4.433879852  -2.536550045
34.672901154  0.000000000  -2.536550045
34.631198883  4.465199947  -1.278769970
34.917900085  0.000000000  -1.278769970
33.855300903  8.877909660  0.000000000
33.775901794  8.857089996  1.278769970
33.539001465  8.794949532  2.536550045
33.148399353  8.692529678  3.752670050
32.610599518  8.551500320  4.907179832
31.934400558  8.374190331  5.981110096
31.130899429  8.163490295  6.956830025
30.213399887  7.922870159  7.818319798
29.196800232  7.656290054  8.551429749
28.097799301  7.368120193  9.144129753
26.934600830  7.063079834  9.586680412
25.726200104  6.746200085  9.871820450
24.492399216  6.422669888  9.994859695
23.253499985  6.097799778  9.953789711
22.029899597  5.776929855  9.749279976
20.841699600  5.465330124  9.384679794
19.708299637  5.168119907  8.865989685
18.648300171  4.890160084  8.201720238
17.679199219  4.636040211  7.402780056
16.816900253  4.409920216  6.482279778
16.075599670  4.215519905  5.455349922
15.467300415  4.056019783  4.338840008
15.002200127  3.934040070  3.151079893
14.687800407  3.851589918  1.911589980
14.529299736  3.810029984  0.640702009
14.529299736  3.810029984  -0.640702009
14.687800407  3.851589918  -1.911589980
15.002200127  3.934040070  -3.151079893
15.467300415  4.056019783  -4.338840008
16.075599670  4.215519905  -5.455349922
16.816900253  4.409920216  -6.482279778
17.679199219  4.636040211  -7.402780056
18.648300171  4.890160084  -8.201720238
19.708299637  5.168119907  -8.865989685
20.841699600  5.465330124  -9.384679794
22.029899597  5.776929855  -9.749279976
23.253499985  6.097799778  -9.953789711
24.492399216  6.422669888  -9.994859695
25.726200104  6.746200085  -9.871820450
26.934600830  7.063079834  -9.586680412
28.097799301  7.368120193  -9.144129753
29.196800232  7.656290054  -8.551429749
30.213399887  7.922870159  -7.818319798
31.130899429  8.163490295  -6.956830025
31.934400558  8.374190331  -5.981110096
32.610599518  8.551500320  -4.907179832
33.148399353  8.692529678  -3.752670050
33.539001465  8.794949532  -2.536550045
33.775901794  8.857089996  -1.278769970
32.442100525  13.134300232  0.000000000
32.366001129  13.103500366  1.278769970
32.138900757  13.011599541  2.536550045
31.764699936  12.860099792  3.752670050
31.249300003  12.651399612  4.907179832
30.601400375  12.389100075  5.981110096
29.831399918  12.077400208  6.956830025
28.952199936  11.721400261  7.818319798
27.978000641  11.326999664  8.551429749
26.924900055  10.900699615  9.144129753
25.810300827  10.449399948  9.586680412
24.652299881  9.980600357  9.871820450
23.469999313  9.501950264  9.994859695
22.282899857  9.021329880  9.953789711
21.110300064  8.546629906  9.749279976
19.971700668  8.085630417  9.384679794
18.885599136  7.645919800  8.865989685
17.869899750  7.234710217  8.201720238
16.941200256  6.858749866  7.402780056
16.114900589  6.524219990  6.482279778
15.404500008  6.236609936  5.455349922
14.821700096  6.000639915  4.338840008
14.376000404  5.820179939  3.151079893
14.074700356  5.698209763  1.911589980
13.922800064  5.636720181  0.640702009
13.922800064  5.636720181  -0.640702009
14.074700356  5.698209763  -1.911589980
14.376000404  5.820179939  -3.151079893
14.821700096  6.000639915  -4.338840008
15.404500008  6.236609936  -5.455349922
16.114900589  6.524219990  -6.482279778
16.941200256  6.858749866  -7.402780056
17.869899750  7.234710217  -8.201720238
18.885599136  7.645919800  -8.865989685
19.971700668  8.085630417  -9.384679794
21.110300064  8.546629906  -9.749279976
22.282899857  9.021329880  -9.953789711
23.469999313  9.501950264  -9.994859695
24.652299881  9.980600357  -9.871820450
25.810300827  10.449399948  -9.586680412
26.924900055  10.900699615  -9.144129753
27.978000641  11.326999664  -8.551429749
28.952199936  11.721400261  -7.818319798
29.831399918  12.077400208  -6.956830025
30.601400375  12.389100075  -5.981110096
31.249300003  12.651399612  -4.907179832
31.764699936  12.860099792  -3.752670050
32.138900757  13.011599541  -2.536550045
32.366001129  13.103500366  -1.278769970
30.496200562  17.175100327  0.000000000
30.424600601  17.134799957  1.278769970
30.211200714  17.014600754  2.536550045
29.859399796  16.816499710  3.752670050
29.374900818  16.543699265  4.907179832
28.765800476  16.200599670  5.981110096
28.042100906  15.793000221  6.956830025
27.215599060  15.327500343  7.818319798
26.299800873  14.811800003  8.551429749
25.309900284  14.254300117  9.144129753
24.262100220  13.664199829  9.586680412
23.173599243  13.051099777  9.871820450
22.062200546  12.425200462  9.994859695
20.946300507  11.796699524  9.953789711
19.844100952  11.175999641  9.749279976
18.773700714  10.573200226  9.384679794
17.752799988  9.998180389  8.865989685
16.798000336  9.460459709  8.201720238
15.925100327  8.968839645  7.402780056
15.148300171  8.531390190  6.482279778
14.480500221  8.155289650  5.455349922
13.932700157  7.846730232  4.338840008
13.513699532  7.610760212  3.151079893
13.230500221  7.451260090  1.911589980
13.087699890  7.370850086  0.640702009
13.087699890  7.370850086  -0.640702009
13.230500221  7.451260090  -1.911589980
13.513699532  7.610760212  -3.151079893
13.932700157  7.846730232  -4.338840008
14.480500221  8.155289650  -5.455349922
15.148300171  8.531390190  -6.482279778
15.925100327  8.968839645  -7.402780056
16.798000336  9.460459709  -8.201720238
17.752799988  9.998180389  -8.865989685
18.773700714  10.573200226  -9.384679794
19.844100952  11.175999641  -9.749279976
20.946300507  11.796699524  -9.953789711
22.062200546  12.425200462  -9.994859695
23.173599243  13.051099777  -9.871820450
24.262100220  13.664199829  -9.586680412
25.309900284  14.254300117  -9.144129753
26.299800873  14.811800003  -8.551429749
27.215599060  15.327500343  -7.818319798
28.042100906  15.793000221  -6.956830025
28.765800476  16.200599670  -5.981110096
29.374900818  16.543699265  -4.907179832
29.859399796  16.816499710  -3.752670050
30.211200714  17.014600754  -2.536550045
30.424600601  17.134799957  -1.278769970
28.049499512  20.933900833  0.000000000
27.983699799  20.884799957  1.278769970
27.787399292  20.738300323  2.536550045
27.463800430  20.496700287  3.752670050
[...]
POINT_DATA 2401
FIELD FieldData 1
curv 1 2401 double
0.028608579
0.028660800
0.028448852
0.028487241
0.027965251
0.027918104
0.027069690
0.027111758
0.025876503
0.025876787
0.024295636
0.024281057
0.022332549
0.022324445
0.019961646
0.019954203
0.017159091
0.017169354
0.013932709
0.013919044
0.010210728
0.010210575
0.005992592
0.005998328
0.001265753
0.001265710
-0.003991034
-0.003992152
-0.009767404
-0.009767037
-0.016027370
-0.016020788
-0.022701740
-0.022696072
-0.029681588
-0.029672001
-0.036792293
-0.036781810
-0.043799963
-0.043793783
-0.050435066
-0.050416447
-0.056338526
-0.056326617
-0.061165508
-0.061177716
-0.064609990
-0.064614929
-0.066396222
-0.066408999
-0.066404678
-0.066410154
-0.064613096
-0.064616092
-0.061172791
-0.061176553
-0.056339879
-0.056326684
-0.050430007
-0.050418895
-0.043807324
-0.043792624
-0.036790948
-0.036781762
-0.029676294
-0.029674318
-0.022698812
-0.022696041
-0.016027719
-0.016020788
-0.009768568
-0.009765878
-0.003992168
-0.003992151
0.001264596
0.001264552
0.005993657
0.005997171
0.010209678
0.010209420
0.013934651
0.013917855
0.017158410
0.017169390
0.019957306
0.019953001
0.022331703
0.022325497
0.024296083
0.024281112
0.025870843
0.025876794
0.027081458
0.027112925
0.027967228
0.027919268
0.028437039
0.028486077
0.028615737
0.028465653
0.027965767
0.027083345
0.025881995
0.024282804
0.022319036
0.019961368
0.017172720
0.013920544
0.010209452
0.005998100
0.001266918
-0.003991110
-0.009765083
-0.016005050
-0.022700129
-0.029675737
-0.036782850
-0.043801732
-0.050416745
-0.056321975
-0.061165109
-0.064618841
-0.066418208
-0.066414535
-0.064619273
-0.061170086
-0.056335572
-0.050424948
-0.043794345
-0.036779873
-0.029671144
-0.022699678
-0.016047871
-0.009764888
-0.003991013
0.001264609
0.005997836
0.010207920
0.013921512
0.017174754
0.019956220
0.022321809
0.024287345
0.025885306
0.027079729
0.027962927
0.028466066
0.028625308
0.028470408
0.027931696
0.027105702
0.025853582
0.024311520
0.022319855
0.019956898
0.017164620
0.013925828
0.010212660
0.005995496
0.001264619
-0.003994605
-0.009768014
-0.016025959
-0.022672813
-0.029675631
-0.036783312
-0.043797877
-0.050420765
-0.056331746
-0.061182659
-0.064621046
-0.066410229
-0.066405654
-0.064618543
-0.061176553
-0.056343947
-0.050429802
-0.043787293
-0.036783438
-0.029678332
-0.022702802
-0.016025050
-0.009778947
-0.003993404
0.001264603
0.005995689
0.010213002
0.013923405
0.017134173
0.019961273
0.022316821
0.024307033
0.025860837
0.027102172
0.027923219
0.028483830
0.028651517
0.028446157
0.027946195
0.027091788
0.025886429
0.024272786
0.022333225
0.019956699
0.017166208
0.013928039
0.010207921
0.005996983
0.001263461
-0.003992204
-0.009767347
-0.016025014
-0.022697913
-0.029675849
-0.036782812
-0.043794803
-0.050421845
-0.056339316
-0.061183918
-0.064619496
-0.066411771
-0.066418469
-0.064625643
-0.061178092
-0.056329425
-0.050421044
-0.043794937
-0.036788095
-0.029676130
-0.022698674
-0.016025539
-0.009768278
-0.003991094
0.001263431
0.005994761
0.010206912
0.013927703
0.017166315
0.019926606
0.022333832
0.024270516
0.025883080
0.027099641
0.027955910
0.028442111
0.028637372
0.028469369
0.027954139
0.027072672
0.025880782
0.024297254
0.022325290
0.019952813
0.017169200
0.013921404
0.010213684
0.005994839
0.001265755
-0.003992178
-0.009765097
-0.016025675
-0.022701830
-0.029677406
-0.036784347
-0.043806527
-0.050443951
-0.056350879
-0.061181497
-0.064622186
-0.066416174
-0.066421896
-0.064625546
-0.061176945
-0.056284860
-0.050487582
-0.043804698
-0.036790479
-0.029677993
-0.022699822
-0.016023533
-0.009763713
-0.003991006
0.001265753
0.005994637
0.010212992
0.013920159
0.017166650
0.019953024
0.022329280
0.024294913
0.025869034
0.027078811
0.027968954
0.028459150
0.028621411
0.028471861
0.027954077
0.027089521
0.025873927
0.024301095
0.022314668
0.019970298
0.017161487
0.013931004
0.010209060
0.005997138
0.001263422
-0.003992080
-0.009769094
-0.016027318
-0.022697102
-0.029675283
-0.036785897
-0.043785106
-0.050414059
-0.056374058
-0.061158575
-0.064608663
-0.066400237
-0.066400006
-0.064599551
-0.061162118
-0.056368113
-0.050352205
-0.043841403
-0.036785282
-0.029673066
-0.022698242
-0.016025109
-0.009768740
-0.003992128
0.001264577
0.005996651
0.010208449
0.013934155
0.017160306
0.019971566
0.022318263
0.024296226
0.025824869
0.027086006
0.027950840
0.028471768
0.028633388
0.028514650
0.027941201
0.027106822
0.025858982
0.024292534
0.022333009
0.019946968
0.017167866
0.013923632
0.010207162
0.005994591
0.001265747
-0.003991906
-0.009765076
-0.016024612
-0.022700550
-0.029677508
-0.036790434
-0.043805163
-0.050437663
-0.056292344
-0.061238039
-0.064620718
-0.066402376
-0.066405565
-0.064616941
-0.061174925
-0.056350555
-0.050547108
-0.043815281
-0.036785267
-0.029677400
-0.022730848
-0.016023098
-0.009766640
-0.003992036
0.001264563
0.005994400
0.010207212
0.013923679
0.017167768
0.019946299
0.022334568
0.024295626
0.025860889
0.027044332
0.027941372
0.028463939
0.028640993
0.028461615
0.028009141
0.027077392
0.025885871
0.024284730
0.022332132
0.019958444
0.017166400
0.013922889
0.010212190
0.005997790
0.001264557
-0.003991813
-0.009766173
-0.016025150
-0.022700582
-0.029674526
-0.036780678
-0.043793958
-0.050421491
-0.056277711
-0.061114877
-0.064607084
-0.066402994
-0.066407278
-0.064625941
-0.061183043
-0.056339558
-0.050417788
-0.043828808
-0.036784459
-0.029676672
-0.022697220
-0.016043825
-0.009766448
-0.003990808
0.001265755
0.005998145
0.010212341
0.013921973
0.017168460
0.019951692
0.022323910
0.024294659
0.025892930
0.027070489
0.027950130
0.028455403
0.028611472
0.028519750
0.027948592
0.027104674
0.025880979
0.024285238
0.022319993
0.019965837
0.017166572
0.013928102
0.010207641
0.005994727
0.001264580
-0.003992157
-0.009768017
-0.016025787
-0.022700960
-0.029672289
-0.036782946
-0.043799818
-0.050423171
-0.056322739
-0.061099105
-0.064618729
-0.066426210
-0.066420108
-0.064683124
-0.061167300
-0.056262162
-0.050418753
-0.043843772
-0.036787961
-0.029674379
-0.022698551
-0.016028527
-0.009767358
-0.003993231
0.001263421
0.005993910
0.010210730
0.013928511
0.017168056
0.019963849
0.022318808
0.024276581
0.025877163
0.027109716
0.027952993
0.028472286
0.028636649
0.028466368
0.027996121
0.027073791
0.025876146
0.024299655
0.022321820
0.019953674
0.017170263
0.013921648
0.010211919
0.005995097
0.001265760
-0.003992166
-0.009779142
-0.016021738
-0.022698384
-0.029681753
-0.036794692
-0.043801475
-0.050429374
-0.056346755
-0.061179508
-0.064618245
-0.066406518
-0.066393092
-0.064613216
-0.061246954
-0.056340467
-0.050381456
-0.043805681
-0.036831964
-0.029677996
-0.022699274
-0.016024016
-0.009765513
-0.003992161
0.001265719
0.005993453
0.010212209
0.013921091
0.017168822
0.019961489
0.022329677
0.024290320
0.025865424
0.027078196
0.027939638
0.028478481
0.028659537
0.028437195
0.027973024
0.027097622
0.025857639
0.024254084
0.022322329
0.019956734
0.017161833
0.013930338
0.010203808
0.005998014
0.001265698
-0.003990732
-0.009767518
-0.016051643
-0.022733368
-0.029677920
-0.036783159
-0.043791439
-0.050415553
-0.056320019
-0.061164793
-0.064684235
-0.066421025
-0.066417970
-0.064613424
-0.061164055
-0.056321386
-0.050422423
-0.043798979
-0.036781590
-0.029677533
-0.022703916
-0.016027551
-0.009768092
-0.003991936
0.001265717
0.005998195
0.010204025
0.013928675
0.017159870
0.019960184
0.022326827
0.024305578
0.025863992
0.027087310
0.027963441
0.028430637
0.028594252
0.028496211
0.027930580
0.027101839
0.025887555
0.024282414
0.022293145
0.019945029
0.017170122
0.013923567
0.010212624
0.005993331
0.001264541
-0.003991918
-0.009765489
-0.016023131
-0.022692522
-0.029709889
-0.036785766
-0.043801043
-0.050430007
-0.056341153
-0.061192784
-0.064627096
-0.066467814
-0.066411860
-0.064614184
-0.061177939
-0.056355514
-0.050434403
-0.043799873
-0.036788158
-0.029673900
-0.022694275
-0.016022837
-0.009765067
-0.003991882
0.001264582
0.005994907
0.010214615
0.013922127
0.017172066
0.019944785
0.022328688
0.024288168
0.025888262
0.027095083
0.027928356
0.028499298
0.028657073
0.028438590
0.027966682
0.027071951
0.025876077
0.024295881
0.022324849
0.019970659
0.017152019
0.013927241
0.010209356
0.005997074
0.001263428
-0.003992028
-0.009769633
-0.016026163
-0.022739347
-0.029675793
-0.036786936
-0.043798566
-0.050421510
-0.056326307
-0.061162759
-0.064611495
-0.066404454
-0.066401467
-0.064610429
-0.061164089
-0.056333967
-0.050425183
-0.043796498
-0.036779273
-0.029670022
-0.022703100
-0.016028736
-0.009769175
-0.003992062
0.001265751
0.005996522
0.010208809
0.013931688
0.017155431
0.019966297
0.022318488
0.024292056
0.025877496
0.027079321
0.027957702
0.028442463
0.028630506
0.028476104
0.027935157
0.027113805
0.025852531
0.024250682
0.022324534
0.019958355
0.017175736
0.013917607
0.010208681
0.005996535
0.001265753
-0.003990981
-0.009765287
-0.016022649
-0.022699727
-0.029726261
-0.036780830
-0.043787796
-0.050418559
-0.056338169
-0.061177522
-0.064610831
-0.066405348
-0.066400766
-0.064623967
-0.061180994
-0.056331169
-0.050418351
-0.043783605
-0.036777399
-0.029679533
-0.022702316
-0.016023418
-0.009765530
-0.003989629
0.001265749
0.005996512
0.010210258
0.013918835
0.017172204
0.019953776
0.022321826
0.024300922
0.025855478
0.027113190
0.027935451
0.028466029
0.028646333
0.028444460
0.027964924
0.027122064
0.025901509
0.024278244
0.022281496
0.019958457
0.017172711
0.013929416
0.010209825
0.005995424
0.001265770
-0.003993392
-0.009767862
-0.016027872
-0.022700112
-0.029674223
-0.036748912
-0.043807052
-0.050432228
-0.056328967
-0.061165482
-0.064612918
-0.066414386
-0.066327497
-0.064616375
-0.061169185
-0.056326505
-0.050427984
-0.043804228
-0.036794946
-0.029680327
-0.022697793
-0.016026329
-0.009768490
-0.003992056
0.001265719
0.005995493
0.010211362
0.013927042
0.017168567
0.019965012
0.022327103
0.024279702
0.025897164
0.027072191
0.027979238
0.028438043
0.028620442
0.028486144
0.027935192
0.027089203
0.025915334
0.024294563
0.022332864
0.019944957
0.017158536
0.013927061
0.010211329
0.005995640
0.001264575
-0.003990875
-0.009766197
-0.016025780
-0.022698438
-0.029676188
-0.036787637
-0.043754552
-0.050427135
-0.056344312
-0.061189163
-0.064633794
-0.066416174
-0.066419117
-0.064538792
-0.061184209
-0.056347143
-0.050433397
-0.043797128
-0.036782458
-0.029674543
-0.022698157
-0.016027728
-0.009765385
-0.003989745
0.001265705
0.005995370
0.010210669
0.013926334
0.017160976
0.019949146
0.022336470
0.024293600
0.025865747
0.027094372
0.027940109
0.028483143
0.028640835
0.028455095
0.027955668
0.027089661
0.025871845
0.024296880
0.022321695
0.019966489
0.017164376
0.013917882
0.010208536
0.005995501
0.001263381
-0.003992180
-0.009766716
-0.016025603
-0.022700243
-0.029645801
-0.036788858
-0.043793626
-0.050413933
-0.056325935
-0.061161164
-0.064596489
-0.066392094
-0.066391438
-0.064603359
-0.061157901
-0.056321461
-0.050420828
-0.043794382
-0.036783561
-0.029675402
-0.022701688
-0.016024861
-0.009765982
-0.003994479
0.001265700
0.005995593
0.010209749
0.013920941
0.017166486
0.019958140
0.022314886
0.024300704
0.025876677
0.027092492
0.027953910
0.028448449
0.028620349
0.028466975
0.027938725
0.027098875
0.025875414
0.024284672
0.022319285
0.019964255
0.017169874
0.013930723
0.010206552
0.005994400
0.001264581
-0.003991017
-0.009765654
-0.016025035
-0.022700926
-0.029677553
-0.036743447
-0.043791775
-0.050421134
-0.056333255
-0.061179824
-0.064626865
-0.066427521
-0.066423185
-0.064621672
-0.061113231
-0.056327701
-0.050428379
-0.043801688
-0.036785219
-0.029676400
-0.022699181
-0.016025212
-0.009765340
-0.003992314
0.001264583
0.005995876
0.010206985
0.013929661
0.017166382
0.019965056
0.022322070
0.024279403
0.025867760
0.027098754
0.027950877
0.028470512
0.028633989
0.028462153
0.027956389
0.027072128
0.025890406
0.024289720
0.022332121
0.019949352
0.017164566
0.013927382
0.010212068
0.005995598
0.001264574
-0.003993312
-0.009768605
-0.016028883
-0.022700930
-0.029674795
-0.036824059
-0.043799303
-0.050436042
-0.056402624
-0.061177421
-0.064619742
-0.066404201
-0.066400148
-0.064610653
-0.061179418
-0.056291629
-0.050431725
-0.043803126
-0.036782689
-0.029674130
-0.022702264
-0.016029585
-0.009768941
-0.003992215
0.001264587
0.005995923
0.010210628
0.013927276
0.017162651
0.019951288
0.022342030
0.024286814
0.025878621
0.027071975
0.027955955
0.028468072
0.028692374
0.028458502
0.027963761
0.027096173
0.025860865
0.024306474
0.022319300
0.019959088
0.017169291
0.013918109
0.010212411
0.005993517
0.001263409
-0.003989675
-0.009764055
-0.016022790
-0.022701036
-0.029679695
-0.036786966
-0.043850034
-0.050425682
-0.056330077
-0.061231535
-0.064617328
-0.066412151
-0.066409118
-0.064625546
-0.061177693
-0.056330584
-0.050420102
-0.043794721
-0.036789611
-0.029681275
-0.022699192
-0.016020715
-0.009763837
-0.003990667
0.001264561
0.005994326
0.010212325
0.013919590
0.017170480
0.019954342
0.022316460
0.024309080
0.025869658
0.027086668
0.027948372
0.028464766
0.028638730
0.028525194
0.027920598
0.027116731
0.025869828
0.024277421
0.022330226
0.019957542
0.017165933
0.013930019
0.010206470
0.005996630
0.001264607
-0.003993481
-0.009768526
-0.016028114
-0.022739289
-0.029671442
-0.036782589
-0.043796845
-0.050422296
-0.056335330
-0.061170209
-0.064605147
-0.066405818
-0.066402927
-0.064615555
-0.061173536
-0.056328490
-0.050427157
-0.043795273
-0.036782503
-0.029675651
-0.022698864
-0.016027763
-0.009768629
-0.003992028
0.001264569
0.005997398
0.010223434
0.013929239
0.017168254
0.019958811
0.022325749
0.024327083
0.025867110
0.027116425
0.027922006
0.028459853
0.028622195
0.028458931
0.027964216
0.027064139
0.025880096
0.024302982
0.022318488
0.019962475
0.017162975
0.013923413
0.010209893
0.005997648
0.001265739
-0.003992233
-0.009765445
-0.016024765
-0.022697138
-0.029731710
-0.036790058
-0.043806113
-0.050435908
-0.056342624
-0.061178274
-0.064672425
-0.066392370
-0.066411167
-0.064625993
-0.061184522
-0.056345664
-0.050430238
-0.043806262
-0.036832437
-0.029678386
-0.022698373
-0.016024144
-0.009765161
-0.003992160
0.001265676
0.005996863
0.010209428
0.013944421
0.017159358
0.019966312
0.022317894
0.024303988
0.025877627
0.027070992
0.027975298
0.028397424
0.028590087
0.028449306
0.027962459
0.027081350
0.025877049
0.024282733
0.022327384
0.019954160
0.017168563
0.013925510
0.010210598
0.005993528
0.001265719
-0.003992311
-0.009766785
-0.016024549
-0.022700472
-0.029710921
-0.036779024
-0.043784477
-0.050406456
-0.056306656
-0.061165161
-0.064618185
-0.066482760
-0.066436686
-0.064708315
-0.061150011
-0.056313742
-0.050408524
-0.043789130
-0.036782343
-0.029702829
-0.022698725
-0.016023291
-0.009766640
-0.003992401
0.001264587
0.005992583
0.010210807
0.013926776
0.017165180
0.019958250
0.022327552
0.024276573
0.025892850
0.027025213
0.027962876
0.028462078
0.028627062
0.028469527
0.027934898
0.027105408
0.025863538
0.024298359
0.022328462
0.019954139
0.017168373
0.013925679
0.010209984
0.005996802
0.001263406
-0.003991074
-0.009766655
-0.016026672
-0.022702010
-0.029676160
-0.036827620
-0.043800093
-0.050431933
-0.056349799
-0.061190095
-0.064625792
-0.066403948
-0.066401348
-0.064609796
-0.061261501
-0.056346960
-0.050439406
-0.043806382
-0.036789410
-0.029676197
-0.022699345
-0.016027136
-0.009765944
-0.003992307
0.001264610
0.005997806
0.010210467
0.013926405
0.017167021
0.019955119
0.022329787
0.024291348
0.025867604
0.027101275
0.027933119
0.028473927
0.028627057
0.028473785
0.027933214
0.027101338
0.025868805
0.024292553
0.022330986
0.019956302
0.017165907
0.013926367
0.010210468
0.005996638
0.001264610
-0.003992300
-0.009767130
-0.016027177
-0.022700539
-0.029675081
-0.036787167
-0.043807644
-0.050439380
-0.056348145
-0.061176103
-0.064611100
-0.066401348
-0.066403948
-0.064625703
-0.061190072
-0.056349732
-0.050431918
-0.043800030
-0.036785420
-0.029677432
-0.022700841
-0.016026685
-0.009767823
-0.003992156
0.001264536
0.005996814
0.010209980
0.013926889
0.017166059
0.019954067
0.022327282
0.024298191
0.025863392
0.027105480
0.027937228
0.028468428
0.028646212
0.028462175
0.027961783
0.027076941
0.025890524
0.024276521
0.022327632
0.019958187
0.017166367
0.013925582
0.010209597
0.005992508
0.001265737
-0.003992402
-0.009765482
-0.016023293
-0.022697598
-0.029703995
-0.036782302
-0.043790139
-0.050408479
-0.056313746
-0.061148778
-0.064618245
-0.066436611
-0.066482715
-0.064618133
-0.061165117
-0.056306656
-0.050406497
-0.043783277
-0.036777962
-0.029676972
-0.022699310
-0.016022215
-0.009767904
-0.003991070
0.001264531
0.005992370
0.010211756
0.013927823
0.017170880
0.019954115
0.022327309
0.024281455
0.025878213
0.027080236
0.027963558
0.028449295
0.028622149
0.028453490
0.027975336
0.027069822
0.025879702
0.024303988
0.022317998
0.019966265
0.017159320
0.013921866
0.010210588
0.005996853
0.001265676
-0.003991002
-0.009764045
-0.016025322
-0.022699466
-0.029678350
-0.036831364
-0.043807298
-0.050429080
-0.056344502
-0.061184522
-0.064624906
-0.066411093
-0.066393532
-0.064672507
-0.061178274
-0.056340236
-0.050437119
-0.043806061
-0.036791231
-0.029681385
-0.022697173
-0.016023587
-0.009765418
-0.003989917
0.001265740
0.005995343
0.010209893
0.013923435
0.017160684
0.019963611
0.022317227
0.024301741
0.025880156
0.027064202
0.027965220
0.028458906
0.028637711
0.028459847
0.027922006
0.027116377
0.025867285
0.024281461
0.022325747
0.019958809
0.017167088
0.013929317
0.010208054
0.005997398
0.001264569
-0.003992020
-0.009768629
-0.016026581
-0.022726011
-0.029674498
-0.036781359
-0.043793958
-0.050425932
-0.056326233
-0.061173536
-0.064614318
-0.066402927
-0.066405818
-0.064605147
-0.061169047
-0.056334019
-0.050423454
-0.043797970
-0.036782637
-0.029671445
-0.022700984
-0.016028183
-0.009768536
-0.003993481
0.001265777
0.005997846
0.010206470
0.013929965
0.017165905
0.019957544
0.022331377
0.024277406
0.025868665
0.027116952
0.027920527
0.028467853
0.028634882
0.028521746
0.027947208
0.027087905
0.025869740
0.024310213
0.022315256
0.019954294
0.017170480
0.013918458
0.010212325
0.005994326
0.001263401
-0.003989520
-0.009765018
-0.016021837
-0.022699192
-0.029714461
-0.036790807
-0.043795977
-0.050421193
-0.056249529
-0.061176535
-0.064625479
-0.066409267
-0.066413455
-0.064617328
-0.061168965
-0.056332268
-0.050425574
-0.043802924
-0.036785867
-0.029678497
-0.022699909
-0.016022788
-0.009764053
-0.003989679
0.001263408
0.005994677
0.010212408
0.013918079
0.017170414
0.019959107
0.022319293
0.024307659
0.025859760
0.027043797
0.027964933
0.028458430
0.028635150
0.028469240
0.028011991
0.027072120
0.025879681
0.024286926
0.022343187
0.019950103
0.017162688
0.013928466
0.010211788
0.005995922
0.001264586
-0.003992214
-0.009768936
-0.016029544
-0.022701101
-0.029675329
-0.036782738
-0.043803066
-0.050431684
-0.056349471
-0.061092678
-0.064609490
-0.066400290
-0.066405453
-0.064619623
-0.061177325
-0.056345940
-0.050436009
-0.043799456
-0.036781229
-0.029675914
-0.022699770
-0.016030043
-0.009768580
-0.003993295
0.001265733
0.005995596
0.010210887
0.013927367
0.017162059
0.019950442
0.022333175
0.024289783
0.025889331
0.027071908
0.027902203
0.028460914
0.028621443
0.028469497
0.027950827
0.027099961
0.025866533
0.024280597
0.022322020
0.019967366
0.017166443
0.013929685
0.010208145
0.005995877
0.001264583
-0.003992314
-0.009766499
-0.016024051
-0.022699177
-0.029677602
-0.036785260
-0.043801568
-0.050428376
-0.056327812
-0.061173454
-0.064623989
-0.066422023
-0.066426359
-0.064626791
-0.061178640
-0.056330994
-0.050420988
-0.043790627
-0.036785498
-0.029677596
-0.022702089
-0.016025061
-0.009765654
-0.003991017
0.001265742
0.005995559
0.010207690
0.013930772
0.017169844
0.019964159
0.022319229
0.024283649
0.025874253
0.027097629
0.027938567
0.028468141
0.028641809
0.028448544
0.027952746
0.027040789
0.025877776
0.024299463
0.022314860
0.019958144
0.017165318
0.013920965
0.010210905
0.005995593
0.001265699
-0.003993321
-0.009765983
-0.016024912
-0.022701722
-0.029676521
-0.036784660
-0.043794367
-0.050420955
-0.056321558
-0.061160218
-0.064604640
-0.066391446
-0.066392094
-0.064596489
-0.061161164