# vtk DataFile Version 4.2
vtk output
ASCII
DATASET POLYDATA
POINTS 978 float
12 12 2 11 8 3 12 8 3 
13 8 3 9 9 3 10 9 3 
11 9 3 12 9 3 13 9 3 
14 9 3 15 9 3 9 10 3 
10 10 3 11 10 3 12 10 3 
13 10 3 14 10 3 15 10 3 
8 11 3 9 11 3 10 11 3 
11 11 3 12 11 3 13 11 3 
14 11 3 15 11 3 16 11 3 
8 12 3 9 12 3 10 12 3 
11 12 3 13 12 3 14 12 3 
15 12 3 16 12 3 8 13 3 
9 13 3 10 13 3 11 13 3 
12 13 3 13 13 3 14 13 3 
15 13 3 16 13 3 9 14 3 
10 14 3 11 14 3 12 14 3 
13 14 3 14 14 3 15 14 3 
9 15 3 10 15 3 11 15 3 
12 15 3 13 15 3 14 15 3 
15 15 3 11 16 3 12 16 3 
13 16 3 12 6 4 9 7 4 
10 7 4 11 7 4 12 7 4 
13 7 4 14 7 4 15 7 4 
8 8 4 9 8 4 10 8 4 
14 8 4 15 8 4 16 8 4 
7 9 4 8 9 4 16 9 4 
17 9 4 7 10 4 8 10 4 
16 10 4 17 10 4 7 11 4 
17 11 4 6 12 4 7 12 4 
17 12 4 18 12 4 7 13 4 
17 13 4 7 14 4 8 14 4 
16 14 4 17 14 4 7 15 4 
8 15 4 16 15 4 17 15 4 
8 16 4 9 16 4 10 16 4 
14 16 4 15 16 4 16 16 4 
9 17 4 10 17 4 11 17 4 
12 17 4 13 17 4 14 17 4 
15 17 4 12 18 4 11 5 5 
12 5 5 13 5 5 9 6 5 
10 6 5 11 6 5 13 6 5 
14 6 5 15 6 5 7 7 5 
8 7 5 16 7 5 17 7 5 
7 8 5 17 8 5 6 9 5 
18 9 5 6 10 5 18 10 5 
5 11 5 6 11 5 18 11 5 
19 11 5 5 12 5 19 12 5 
5 13 5 6 13 5 18 13 5 
19 13 5 6 14 5 18 14 5 
6 15 5 18 15 5 7 16 5 
17 16 5 7 17 5 8 17 5 
16 17 5 17 17 5 9 18 5 
10 18 5 11 18 5 13 18 5 
14 18 5 15 18 5 11 19 5 
12 19 5 13 19 5 12 4 6 
9 5 6 10 5 6 11 5 6 
13 5 6 14 5 6 15 5 6 
7 6 6 8 6 6 16 6 6 
17 6 6 6 7 6 18 7 6 
6 8 6 18 8 6 5 9 6 
19 9 6 5 10 6 19 10 6 
5 11 6 19 11 6 4 12 6 
20 12 6 5 13 6 19 13 6 
5 14 6 19 14 6 5 15 6 
19 15 6 6 16 6 18 16 6 
6 17 6 18 17 6 7 18 6 
8 18 6 16 18 6 17 18 6 
9 19 6 10 19 6 14 19 6 
15 19 6 11 19 6 12 20 6 
13 19 6 9 4 7 10 4 7 
11 4 7 12 4 7 13 4 7 
14 4 7 15 4 7 7 5 7 
8 5 7 16 5 7 17 5 7 
6 6 7 18 6 7 5 7 7 
19 7 7 5 8 7 19 8 7 
4 9 7 20 9 7 4 10 7 
20 10 7 4 11 7 20 11 7 
4 12 7 20 12 7 4 13 7 
20 13 7 4 14 7 20 14 7 
4 15 7 20 15 7 5 16 7 
19 16 7 5 17 7 19 17 7 
6 18 7 18 18 7 7 19 7 
8 19 7 16 19 7 17 19 7 
9 20 7 10 20 7 11 20 7 
13 20 7 14 20 7 15 20 7 
12 20 7 11 3 8 12 3 8 
13 3 8 8 4 8 9 4 8 
10 4 8 14 4 8 15 4 8 
16 4 8 7 5 8 17 5 8 
6 6 8 18 6 8 5 7 8 
19 7 8 4 8 8 20 8 8 
4 9 8 20 9 8 4 10 8 
20 10 8 3 11 8 21 11 8 
3 12 8 21 12 8 3 13 8 
21 13 8 4 14 8 20 14 8 
4 15 8 20 15 8 4 16 8 
20 16 8 5 17 8 19 17 8 
6 18 8 18 18 8 7 19 8 
17 19 8 8 20 8 16 20 8 
9 20 8 10 20 8 11 21 8 
12 21 8 13 21 8 14 20 8 
15 20 8 9 3 9 10 3 9 
11 3 9 12 3 9 13 3 9 
14 3 9 15 3 9 7 4 9 
8 4 9 16 4 9 17 4 9 
6 5 9 18 5 9 5 6 9 
19 6 9 4 7 9 20 7 9 
4 8 9 20 8 9 3 9 9 
21 9 9 3 10 9 21 10 9 
3 11 9 21 11 9 3 12 9 
21 12 9 3 13 9 21 13 9 
3 14 9 21 14 9 3 15 9 
21 15 9 4 16 9 20 16 9 
4 17 9 20 17 9 5 18 9 
19 18 9 6 19 9 18 19 9 
7 20 9 17 20 9 8 20 9 
9 21 9 10 21 9 14 21 9 
15 21 9 16 20 9 11 21 9 
12 21 9 13 21 9 9 3 10 
10 3 10 11 3 10 12 3 10 
13 3 10 14 3 10 15 3 10 
7 4 10 8 4 10 16 4 10 
17 4 10 6 5 10 18 5 10 
5 6 10 19 6 10 4 7 10 
20 7 10 4 8 10 20 8 10 
3 9 10 21 9 10 3 10 10 
21 10 10 3 11 10 21 11 10 
3 12 10 21 12 10 3 13 10 
21 13 10 3 14 10 21 14 10 
3 15 10 21 15 10 4 16 10 
20 16 10 4 17 10 20 17 10 
5 18 10 19 18 10 6 19 10 
18 19 10 7 20 10 17 20 10 
8 20 10 9 21 10 15 21 10 
16 20 10 10 21 10 11 21 10 
12 21 10 13 21 10 14 21 10 
8 3 11 9 3 11 10 3 11 
11 3 11 12 3 11 13 3 11 
14 3 11 15 3 11 16 3 11 
7 4 11 17 4 11 5 5 11 
6 5 11 18 5 11 19 5 11 
5 6 11 19 6 11 4 7 11 
20 7 11 3 8 11 21 8 11 
3 9 11 21 9 11 3 10 11 
21 10 11 3 11 11 21 11 11 
3 12 11 21 12 11 3 13 11 
21 13 11 3 14 11 21 14 11 
3 15 11 21 15 11 3 16 11 
21 16 11 4 17 11 20 17 11 
5 18 11 19 18 11 5 19 11 
19 19 11 6 19 11 7 20 11 
17 20 11 18 19 11 8 21 11 
16 21 11 9 21 11 10 21 11 
11 21 11 12 21 11 13 21 11 
14 21 11 15 21 11 12 2 12 
8 3 12 9 3 12 10 3 12 
11 3 12 13 3 12 14 3 12 
15 3 12 16 3 12 6 4 12 
7 4 12 17 4 12 18 4 12 
5 5 12 19 5 12 4 6 12 
20 6 12 4 7 12 20 7 12 
3 8 12 21 8 12 3 9 12 
21 9 12 3 10 12 21 10 12 
3 11 12 21 11 12 2 12 12 
22 12 12 3 13 12 21 13 12 
3 14 12 21 14 12 3 15 12 
21 15 12 3 16 12 21 16 12 
4 17 12 20 17 12 4 18 12 
20 18 12 5 19 12 19 19 12 
6 20 12 18 20 12 7 20 12 
8 21 12 16 21 12 17 20 12 
9 21 12 10 21 12 11 21 12 
12 22 12 13 21 12 14 21 12 
15 21 12 8 3 13 9 3 13 
10 3 13 11 3 13 12 3 13 
13 3 13 14 3 13 15 3 13 
16 3 13 7 4 13 17 4 13 
5 5 13 6 5 13 18 5 13 
19 5 13 5 6 13 19 6 13 
4 7 13 20 7 13 3 8 13 
21 8 13 3 9 13 21 9 13 
3 10 13 21 10 13 3 11 13 
21 11 13 3 12 13 21 12 13 
3 13 13 21 13 13 3 14 13 
21 14 13 3 15 13 21 15 13 
3 16 13 21 16 13 4 17 13 
20 17 13 5 18 13 19 18 13 
5 19 13 19 19 13 6 19 13 
7 20 13 17 20 13 18 19 13 
8 21 13 16 21 13 9 21 13 
10 21 13 11 21 13 12 21 13 
13 21 13 14 21 13 15 21 13 
9 3 14 10 3 14 11 3 14 
12 3 14 13 3 14 14 3 14 
15 3 14 7 4 14 8 4 14 
16 4 14 17 4 14 6 5 14 
18 5 14 5 6 14 19 6 14 
4 7 14 20 7 14 4 8 14 
20 8 14 3 9 14 21 9 14 
3 10 14 21 10 14 3 11 14 
21 11 14 3 12 14 21 12 14 
3 13 14 21 13 14 3 14 14 
21 14 14 3 15 14 21 15 14 
4 16 14 20 16 14 4 17 14 
20 17 14 5 18 14 19 18 14 
6 19 14 18 19 14 7 20 14 
17 20 14 8 20 14 9 21 14 
15 21 14 16 20 14 10 21 14 
11 21 14 12 21 14 13 21 14 
14 21 14 9 3 15 10 3 15 
11 3 15 12 3 15 13 3 15 
14 3 15 15 3 15 7 4 15 
8 4 15 16 4 15 17 4 15 
6 5 15 18 5 15 5 6 15 
19 6 15 4 7 15 20 7 15 
4 8 15 20 8 15 3 9 15 
21 9 15 3 10 15 21 10 15 
3 11 15 21 11 15 3 12 15 
21 12 15 3 13 15 21 13 15 
3 14 15 21 14 15 3 15 15 
21 15 15 4 16 15 20 16 15 
4 17 15 20 17 15 5 18 15 
19 18 15 6 19 15 18 19 15 
7 20 15 17 20 15 8 20 15 
9 21 15 15 21 15 16 20 15 
10 21 15 11 21 15 12 21 15 
13 21 15 14 21 15 11 3 16 
12 3 16 13 3 16 8 4 16 
9 4 16 10 4 16 14 4 16 
15 4 16 16 4 16 7 5 16 
17 5 16 6 6 16 18 6 16 
5 7 16 19 7 16 4 8 16 
20 8 16 4 9 16 20 9 16 
4 10 16 20 10 16 3 11 16 
21 11 16 3 12 16 21 12 16 
3 13 16 21 13 16 4 14 16 
20 14 16 4 15 16 20 15 16 
4 16 16 20 16 16 5 17 16 
19 17 16 6 18 16 18 18 16 
7 19 16 17 19 16 8 20 16 
16 20 16 9 20 16 10 20 16 
11 21 16 13 21 16 14 20 16 
15 20 16 12 21 16 9 4 17 
10 4 17 11 4 17 12 4 17 
13 4 17 14 4 17 15 4 17 
7 5 17 8 5 17 16 5 17 
17 5 17 6 6 17 18 6 17 
5 7 17 19 7 17 5 8 17 
19 8 17 4 9 17 20 9 17 
4 10 17 20 10 17 4 11 17 
20 11 17 4 12 17 20 12 17 
4 13 17 20 13 17 4 14 17 
20 14 17 4 15 17 20 15 17 
5 16 17 19 16 17 5 17 17 
19 17 17 6 18 17 18 18 17 
7 19 17 17 19 17 8 19 17 
9 20 17 15 20 17 16 19 17 
10 20 17 11 20 17 12 20 17 
13 20 17 14 20 17 12 4 18 
9 5 18 10 5 18 11 5 18 
13 5 18 14 5 18 15 5 18 
7 6 18 8 6 18 16 6 18 
17 6 18 6 7 18 18 7 18 
6 8 18 18 8 18 5 9 18 
19 9 18 5 10 18 19 10 18 
5 11 18 19 11 18 4 12 18 
20 12 18 5 13 18 19 13 18 
5 14 18 19 14 18 5 15 18 
19 15 18 6 16 18 18 16 18 
6 17 18 18 17 18 7 18 18 
17 18 18 8 18 18 9 19 18 
15 19 18 16 18 18 10 19 18 
11 19 18 12 20 18 13 19 18 
14 19 18 11 5 19 12 5 19 
13 5 19 9 6 19 10 6 19 
14 6 19 15 6 19 7 7 19 
8 7 19 16 7 19 17 7 19 
7 8 19 17 8 19 6 9 19 
18 9 19 6 10 19 18 10 19 
5 11 19 19 11 19 5 12 19 
19 12 19 5 13 19 19 13 19 
6 14 19 18 14 19 6 15 19 
18 15 19 7 16 19 17 16 19 
7 17 19 17 17 19 8 17 19 
9 18 19 15 18 19 16 17 19 
10 18 19 11 19 19 13 19 19 
14 18 19 12 19 19 11 6 19 
12 6 20 13 6 19 9 7 20 
10 7 20 11 7 20 13 7 20 
14 7 20 15 7 20 8 8 20 
16 8 20 7 9 20 17 9 20 
7 10 20 17 10 20 6 11 19 
7 11 20 18 11 19 17 11 20 
6 12 20 18 12 20 6 13 19 
7 13 20 18 13 19 17 13 20 
7 14 20 17 14 20 7 15 20 
17 15 20 8 16 20 16 16 20 
9 17 20 15 17 20 10 17 20 
11 17 20 11 18 19 12 18 20 
13 18 19 13 17 20 14 17 20 
12 7 20 9 8 20 10 8 20 
11 8 21 12 8 21 13 8 21 
14 8 20 15 8 20 8 9 20 
9 9 21 10 9 21 14 9 21 
15 9 21 16 9 20 8 10 20 
9 10 21 16 10 20 15 10 21 
8 11 21 16 11 21 7 12 20 
8 12 21 17 12 20 16 12 21 
8 13 21 16 13 21 8 14 20 
9 14 21 16 14 20 15 14 21 
8 15 20 9 15 21 16 15 20 
15 15 21 9 16 20 10 15 21 
10 16 20 11 16 21 14 16 20 
13 16 21 14 15 21 15 16 20 
12 16 21 12 17 20 11 9 21 
12 9 21 13 9 21 10 10 21 
11 10 21 12 10 21 13 10 21 
14 10 21 9 11 21 10 11 21 
11 11 21 12 11 21 13 11 21 
14 11 21 15 11 21 9 12 21 
10 12 21 11 12 21 12 12 22 
13 12 21 14 12 21 15 12 21 
9 13 21 10 13 21 11 13 21 
12 13 21 13 13 21 14 13 21 
15 13 21 10 14 21 11 14 21 
12 14 21 13 14 21 14 14 21 
11 15 21 12 15 21 13 15 21 

POLYGONS 1952 7808
3 6 5 1 
3 7 1 2 
3 6 1 7 
3 8 2 3 
3 7 2 8 
3 8 3 9 
3 12 4 5 
3 11 4 12 
3 13 5 6 
3 12 5 13 
3 14 6 7 
3 13 6 14 
3 15 7 8 
3 14 7 15 
3 16 8 9 
3 15 8 16 
3 17 9 10 
3 16 9 17 
3 19 18 11 
3 20 11 12 
3 19 11 20 
3 21 12 13 
3 20 12 21 
3 22 13 14 
3 21 13 22 
3 23 14 15 
3 22 14 23 
3 24 15 16 
3 23 15 24 
3 25 16 17 
3 24 16 25 
3 25 17 26 
3 28 18 19 
3 27 18 28 
3 29 19 20 
3 28 19 29 
3 30 20 21 
3 29 20 30 
3 30 22 0 
3 30 21 22 
3 22 31 0 
3 22 23 31 
3 32 23 24 
3 31 23 32 
3 33 24 25 
3 32 24 33 
3 34 25 26 
3 33 25 34 
3 36 27 28 
3 35 27 36 
3 37 28 29 
3 36 28 37 
3 38 29 30 
3 37 29 38 
3 39 30 0 
3 39 38 30 
3 31 39 0 
3 31 40 39 
3 41 31 32 
3 40 31 41 
3 42 32 33 
3 41 32 42 
3 43 33 34 
3 42 33 43 
3 36 44 35 
3 45 36 37 
3 44 36 45 
3 46 37 38 
3 45 37 46 
3 47 38 39 
3 46 38 47 
3 48 39 40 
3 47 39 48 
3 49 40 41 
3 48 40 49 
3 50 41 42 
3 49 41 50 
3 42 43 50 
3 52 44 45 
3 51 44 52 
3 53 45 46 
3 52 45 53 
3 54 46 47 
3 53 46 54 
3 55 47 48 
3 54 47 55 
3 56 48 49 
3 55 48 56 
3 57 49 50 
3 56 49 57 
3 53 58 52 
3 59 53 54 
3 58 53 59 
3 60 54 55 
3 59 54 60 
3 55 56 60 
3 65 64 61 
3 65 61 66 
3 70 69 62 
3 71 62 63 
3 70 62 71 
3 71 64 1 
3 71 63 64 
3 1 64 2 
3 2 64 65 
3 2 65 3 
3 3 65 66 
3 66 72 3 
3 66 67 72 
3 73 67 68 
3 72 67 73 
3 73 68 74 
3 76 75 69 
3 76 70 4 
3 76 69 70 
3 4 70 5 
3 5 70 71 
3 5 71 1 
3 72 9 3 
3 9 72 10 
3 10 72 73 
3 73 77 10 
3 73 74 77 
3 77 74 78 
3 80 75 76 
3 79 75 80 
3 11 80 4 
3 4 80 76 
3 81 17 77 
3 77 17 10 
3 82 77 78 
3 81 77 82 
3 83 80 18 
3 83 79 80 
3 18 80 11 
3 81 26 17 
3 81 84 26 
3 81 82 84 
3 86 85 83 
3 27 86 18 
3 18 86 83 
3 87 34 84 
3 84 34 26 
3 87 84 88 
3 86 89 85 
3 35 89 27 
3 27 89 86 
3 90 43 87 
3 87 43 34 
3 87 88 90 
3 92 89 35 
3 92 91 89 
3 44 92 35 
3 93 50 43 
3 90 93 43 
3 90 94 93 
3 96 91 92 
[...]
POINT_DATA 978
SCALARS scalars double
LOOKUP_TABLE default
0.47862550616 0.47862550616 0.47862550616 0.47862547636 0.47862550616 0.47862550616 0.47862550616 0.47862550616 0.47862550616 
0.47862547636 0.47862547636 0.47862550616 0.47862550616 0.47862550616 0.47862550616 0.47862550616 0.47862550616 0.47862547636 
0.47862550616 0.47862550616 0.47862550616 0.47862550616 0.47862550616 0.47862550616 0.47862550616 0.47862550616 0.47862550616 
0.47862550616 0.47862550616 0.47862550616 0.47862550616 0.47862550616 0.47862550616 0.47862550616 0.47862550616 0.47862550616 
0.47862550616 0.47862550616 0.47862550616 0.47862550616 0.47862550616 0.47862550616 0.47862550616 0.47862550616 0.47862550616 
0.47862550616 0.47862550616 0.47862550616 0.47862550616 0.47862550616 0.47862550616 0.47862550616 0.47862550616 0.47862550616 
0.47862550616 0.47862550616 0.47862550616 0.47862550616 0.47862550616 0.47862550616 0.47862550616 0.47862547636 0.47862547636 
0.47862547636 0.47862547636 0.47862547636 0.47862547636 0.47862547636 0.47862547636 0.47862547636 0.47862547636 0.47862550616 
0.47862547636 0.47862547636 0.47862547636 0.47862547636 0.47862550616 0.47862547636 0.47862547636 0.47862550616 0.47862550616 
0.47862547636 0.47862547636 0.47862550616 0.47862547636 0.47862550616 0.47862550616 0.47862550616 0.47862550616 0.47862550616 
0.47862550616 0.47862550616 0.47862550616 0.47862550616 0.47862550616 0.47862550616 0.47862550616 0.47862550616 0.47862550616 
0.47862550616 0.47862550616 0.47862550616 0.47862550616 0.47862550616 0.47862550616 0.47862550616 0.47862550616 0.47862550616 
0.47862550616 0.47862550616 0.47862550616 0.47862550616 0.47862550616 0.47862547636 0.47862550616 0.47862550616 0.47862547636 
0.47862547636 0.47862547636 0.47862547636 0.47862550616 0.47862550616 0.47862547636 0.47862547636 0.47862550616 0.47862550616 
0.47862547636 0.47862547636 0.47862547636 0.47862547636 0.47862547636 0.47862547636 0.47862547636 0.47862550616 0.47862547636 
0.47862547636 0.47862550616 0.47862547636 0.47862550616 0.47862550616 0.47862550616 0.47862547636 0.47862550616 0.47862550616 
0.47862550616 0.47862550616 0.47862550616 0.47862550616 0.47862550616 0.47862550616 0.47862550616 0.47862550616 0.47862550616 
0.47862550616 0.47862550616 0.47862550616 0.47862550616 0.47862550616 0.47862550616 0.47862550616 0.47862550616 0.47862550616 
0.47862547636 0.47862547636 0.47862550616 0.47862550616 0.47862550616 0.47862550616 0.47862547636 0.47862547636 0.47862550616 
0.47862550616 0.47862547636 0.47862550616 0.47862547636 0.47862547636 0.47862547636 0.47862547636 0.47862547636 0.47862547636 
0.47862547636 0.47862547636 0.47862547636 0.47862547636 0.47862547636 0.47862547636 0.47862550616 0.47862547636 0.47862550616 
0.47862547636 0.47862550616 0.47862550616 0.47862550616 0.47862550616 0.47862550616 0.47862550616 0.47862550616 0.47862550616 
0.47862550616 0.47862550616 0.47862550616 0.47862550616 0.47862550616 0.47862550616 0.47862550616 0.47862547636 0.47862550616 
0.47862550616 0.47862550616 0.47862550616 0.47862550616 0.47862550616 0.47862547636 0.47862547636 0.47862550616 0.47862550616 
0.47862547636 0.47862550616 0.47862547636 0.47862547636 0.47862547636 0.47862547636 0.47862547636 0.47862547636 0.47862547636 
0.47862547636 0.47862547636 0.47862547636 0.47862547636 0.47862547636 0.47862547636 0.47862547636 0.47862547636 0.47862547636 
0.47862547636 0.47862547636 0.47862550616 0.47862547636 0.47862550616 0.47862547636 0.47862550616 0.47862547636 0.47862547636 
0.47862550616 0.47862550616 0.47862547636 0.47862550616 0.47862550616 0.47862550616 0.47862550616 0.47862550616 0.47862550616 
0.47862550616 0.47862550616 0.47862550616 0.47862550616 0.47862547636 0.47862550616 0.47862550616 0.47862550616 0.47862550616 
0.47862550616 0.47862547636 0.47862550616 0.47862547636 0.47862550616 0.47862547636 0.47862550616 0.47862547636 0.47862547636 
0.47862547636 0.47862547636 0.47862547636 0.47862547636 0.47862547636 0.47862547636 0.47862547636 0.47862547636 0.47862547636 
0.47862547636 0.47862547636 0.47862547636 0.47862547636 0.47862547636 0.47862547636 0.47862547636 0.47862547636 0.47862547636 
0.47862547636 0.47862547636 0.47862547636 0.47862547636 0.47862547636 0.47862547636 0.47862547636 0.47862550616 0.47862550616 
0.47862550616 0.47862547636 0.47862550616 0.47862547636 0.47862550616 0.47862550616 0.47862550616 0.47862550616 0.47862550616 
0.47862550616 0.47862550616 0.47862547636 0.47862547636 0.47862550616 0.47862550616 0.47862547636 0.47862550616 0.47862547636 
0.47862550616 0.47862547636 0.47862550616 0.47862547636 0.47862547636 0.47862547636 0.47862547636 0.47862547636 0.47862547636 
0.47862547636 0.47862547636 0.47862547636 0.47862547636 0.47862547636 0.47862547636 0.47862547636 0.47862547636 0.47862547636 
0.47862547636 0.47862547636 0.47862547636 0.47862547636 0.47862547636 0.47862547636 0.47862547636 0.47862547636 0.47862547636 
0.47862547636 0.47862547636 0.47862550616 0.47862550616 0.47862550616 0.47862547636 0.47862547636 0.47862547636 0.47862550616 
0.47862550616 0.47862550616 0.47862550616 0.47862550616 0.47862550616 0.47862550616 0.47862550616 0.47862550616 0.47862550616 
0.47862547636 0.47862550616 0.47862550616 0.47862550616 0.47862547636 0.47862550616 0.47862547636 0.47862550616 0.47862547636 
0.47862550616 0.47862547636 0.47862550616 0.47862547636 0.47862547636 0.47862547636 0.47862547636 0.47862547636 0.47862547636 
0.47862547636 0.47862547636 0.47862547636 0.47862547636 0.47862547636 0.47862547636 0.47862547636 0.47862547636 0.47862547636 
0.47862547636 0.47862547636 0.47862547636 0.47862547636 0.47862547636 0.47862547636 0.47862547636 0.47862550616 0.47862547636 
0.47862550616 0.47862550616 0.47862547636 0.47862547636 0.47862550616 0.47862550616 0.47862550616 0.47862550616 0.47862550616 
0.47862550616 0.47862550616 0.47862550616 0.47862550616 0.47862550616 0.47862550616 0.47862550616 0.47862550616 0.47862550616 
0.47862547636 0.47862550616 0.47862547636 0.47862547636 0.47862550616 0.47862550616 0.47862547636 0.47862550616 0.47862547636 
0.47862550616 0.47862547636 0.47862550616 0.47862547636 0.47862547636 0.47862547636 0.47862547636 0.47862547636 0.47862547636 
0.47862547636 0.47862547636 0.47862547636 0.47862547636 0.47862547636 0.47862547636 0.47862547636 0.47862547636 0.47862547636 
0.47862547636 0.47862547636 0.47862547636 0.47862547636 0.47862547636 0.47862547636 0.47862547636 0.47862550616 0.47862550616 
0.47862547636 0.47862547636 0.47862550616 0.47862550616 0.47862550616 0.47862550616 0.47862550616 0.47862550616 0.47862550616 
0.47862550616 0.47862550616 0.47862550616 0.47862550616 0.47862550616 0.47862550616 0.47862550616 0.47862550616 0.47862550616 
0.47862550616 0.47862550616 0.47862547636 0.47862547636 0.47862550616 0.47862550616 0.47862547636 0.47862550616 0.47862547636 
0.47862550616 0.47862547636 0.47862550616 0.47862547636 0.47862550616 0.47862547636 0.47862547636 0.47862547636 0.47862547636 
0.47862547636 0.47862547636 0.47862547636 0.47862547636 0.47862547636 0.47862547636 0.47862547636 0.47862547636 0.47862547636 
0.47862547636 0.47862547636 0.47862547636 0.47862547636 0.47862547636 0.47862547636 0.47862547636 0.47862550616 0.47862547636 
0.47862550616 0.47862550616 0.47862550616 0.47862550616 0.47862550616 0.47862550616 0.47862550616 0.47862550616 0.47862550616 
0.47862550616 0.47862550616 0.47862550616 0.47862550616 0.47862547636 0.47862550616 0.47862550616 0.47862550616 0.47862550616 
0.47862550616 0.47862550616 0.47862550616 0.47862550616 0.47862547636 0.47862550616 0.47862547636 0.47862547636 0.47862550616 
0.47862550616 0.47862547636 0.47862550616 0.47862547636 0.47862550616 0.47862547636 0.47862547636 0.47862547636 0.47862547636 
0.47862547636 0.47862547636 0.47862547636 0.47862547636 0.47862547636 0.47862547636 0.47862547636 0.47862547636 0.47862547636 
0.47862547636 0.47862547636 0.47862547636 0.47862547636 0.47862547636 0.47862547636 0.47862547636 0.47862547636 0.47862547636 
0.47862550616 0.47862547636 0.47862550616 0.47862550616 0.47862550616 0.47862550616 0.47862550616 0.47862550616 0.47862550616 
0.47862550616 0.47862550616 0.47862550616 0.47862550616 0.47862550616 0.47862550616 0.47862547636 0.47862550616 0.47862550616 
0.47862550616 0.47862550616 0.47862550616 0.47862550616 0.47862547636 0.47862547636 0.47862550616 0.47862550616 0.47862547636 
0.47862550616 0.47862547636 0.47862550616 0.47862547636 0.47862550616 0.47862547636 0.47862550616 0.47862547636 0.47862547636 
0.47862547636 0.47862547636 0.47862547636 0.47862547636 0.47862547636 0.47862547636 0.47862547636 0.47862547636 0.47862547636 
0.47862547636 0.47862547636 0.47862547636 0.47862547636 0.47862547636 0.47862547636 0.47862547636 0.47862550616 0.47862547636 
0.47862550616 0.47862550616 0.47862550616 0.47862550616 0.47862550616 0.47862550616 0.47862550616 0.47862550616 0.47862550616 
0.47862550616 0.47862550616 0.47862550616 0.47862550616 0.47862547636 0.47862547636 0.47862550616 0.47862550616 0.47862550616 
0.47862550616 0.47862550616 0.47862547636 0.47862547636 0.47862550616 0.47862550616 0.47862547636 0.47862550616 0.47862547636 
0.47862550616 0.47862547636 0.47862550616 0.47862547636 0.47862547636 0.47862547636 0.47862547636 0.47862547636 0.47862547636 
0.47862547636 0.47862547636 0.47862547636 0.47862547636 0.47862547636 0.47862547636 0.47862547636 0.47862547636 0.47862547636 
0.47862547636 0.47862547636 0.47862547636 0.47862547636 0.47862547636 0.47862550616 0.47862547636 0.47862550616 0.47862550616 
0.47862550616 0.47862550616 0.47862550616 0.47862550616 0.47862550616 0.47862550616 0.47862550616 0.47862550616 0.47862550616 
0.47862550616 0.47862550616 0.47862550616 0.47862550616 0.47862550616 0.47862547636 0.47862547636 0.47862547636 0.47862550616 
0.47862550616 0.47862550616 0.47862547636 0.47862550616 0.47862547636 0.47862550616 0.47862547636 0.47862550616 0.47862547636 
0.47862547636 0.47862547636 0.47862547636 0.47862547636 0.47862547636 0.47862547636 0.47862547636 0.47862547636 0.47862547636 
0.47862547636 0.47862547636 0.47862547636 0.47862547636 0.47862547636 0.47862547636 0.47862547636 0.47862547636 0.47862550616 
0.47862547636 0.47862550616 0.47862550616 0.47862550616 0.47862550616 0.47862550616 0.47862550616 0.47862550616 0.47862550616 
0.47862550616 0.47862550616 0.47862550616 0.47862550616 0.47862550616 0.47862547636 0.47862547636 0.47862547636 0.47862550616 
0.47862550616 0.47862550616 0.47862550616 0.47862547636 0.47862547636 0.47862550616 0.47862550616 0.47862547636 0.47862550616 
0.47862547636 0.47862547636 0.47862547636 0.47862547636 0.47862547636 0.47862547636 0.47862547636 0.47862547636 0.47862547636 
0.47862547636 0.47862547636 0.47862547636 0.47862547636 0.47862547636 0.47862547636 0.47862547636 0.47862547636 0.47862547636 
0.47862547636 0.47862547636 0.47862550616 0.47862547636 0.47862550616 0.47862550616 0.47862550616 0.47862550616 0.47862550616 
0.47862550616 0.47862550616 0.47862550616 0.47862550616 0.47862550616 0.47862550616 0.47862550616 0.47862550616 0.47862550616 
0.47862547636 0.47862547636 0.47862547636 0.47862550616 0.47862550616 0.47862550616 0.47862547636 0.47862547636 0.47862550616 
0.47862550616 0.47862547636 0.47862547636 0.47862547636 0.47862547636 0.47862547636 0.47862547636 0.47862547636 0.47862547636 
0.47862547636 0.47862547636 0.47862547636 0.47862547636 0.47862547636 0.47862547636 0.47862547636 0.47862547636 0.47862547636 
0.47862547636 0.47862547636 0.47862547636 0.47862550616 0.47862547636 0.47862550616 0.47862550616 0.47862550616 0.47862550616 
0.47862550616 0.47862550616 0.47862550616 0.47862550616 0.47862550616 0.47862550616 0.47862550616 0.47862547636 0.47862547636 
0.47862547636 0.47862547636 0.47862547636 0.47862547636 0.47862547636 0.47862547636 0.47862547636 0.47862547636 0.47862547636 
0.47862547636 0.47862547636 0.47862547636 0.47862547636 0.47862547636 0.47862547636 0.47862547636 0.47862547636 0.47862547636 
0.47862547636 0.47862547636 0.47862547636 0.47862547636 0.47862547636 0.47862547636 0.47862547636 0.47862547636 0.47862547636 
0.47862547636 0.47862547636 0.47862550616 0.47862550616 0.47862550616 0.47862550616 0.47862550616 0.47862550616 0.47862550616 
0.47862550616 0.47862550616 0.47862547636 0.47862547636 0.47862547636 0.47862547636 0.47862547636 0.47862547636 0.47862547636 
0.47862547636 0.47862547636 0.47862547636 0.47862547636 0.47862547636 0.47862547636 0.47862547636 0.47862547636 0.47862547636 
0.47862547636 0.47862547636 0.47862547636 0.47862547636 0.47862547636 0.47862547636 0.47862547636 0.47862547636 0.47862547636 
0.47862547636 0.47862547636 0.47862547636 0.47862547636 0.47862547636 0.47862547636 0.47862550616 0.47862550616 0.47862550616 
0.47862550616 0.47862550616 0.47862550616 0.47862550616 0.47862550616 0.47862550616 0.47862547636 0.47862547636 0.47862547636 
0.47862547636 0.47862547636 0.47862547636 0.47862547636 0.47862547636 0.47862547636 0.47862547636 0.47862547636 0.47862547636 
0.47862547636 0.47862547636 0.47862547636 0.47862547636 0.47862547636 0.47862547636 0.47862547636 0.47862547636 0.47862547636 
0.47862547636 0.47862547636 0.47862547636 0.47862547636 0.47862547636 0.47862547636 0.47862547636 0.47862547636 0.47862547636 
0.47862547636 0.47862547636 0.47862547636 0.47862547636 0.47862547636 0.47862547636 0.47862550616 0.47862550616 0.47862550616 
0.47862547636 0.47862547636 0.47862547636 0.47862550616 0.47862550616 0.47862547636 0.47862547636 0.47862547636 0.47862547636 
0.47862547636 0.47862547636 0.47862547636 0.47862547636 0.47862547636 0.47862547636 0.47862547636 0.47862547636 0.47862547636 
0.47862547636 0.47862547636 0.47862547636 0.47862547636 0.47862547636 0.47862547636 0.47862547636 0.47862547636 0.47862547636 
0.47862547636 0.47862547636 0.47862547636 0.47862547636 0.47862547636 0.47862547636 0.47862547636 0.47862547636 0.47862547636 
0.47862547636 0.47862547636 0.47862547636 0.47862547636 0.47862547636 0.47862547636 
VECTORS Vectors_ float
0 0 -0.5 -0.5 -0.5 -0.5 0 -0.5 -0.5 
0.5 -0.5 -0.5 -0.5 -0.5 -0.5 0 -0.5 -0.5 
0 0 -0.5 0 0 -0.5 0 0 -0.5 
0 -0.5 -0.5 0.5 -0.5 -0.5 -0.5 0 -0.5 
0 0 -0.5 0 0 -0.5 0 0 -0.5 
0 0 -0.5 0 0 -0.5 0.5 0 -0.5 
-0.5 -0.5 -0.5 0 0 -0.5 0 0 -0.5 
0 0 -0.5 0 0 -0.5 0 0 -0.5 
0 0 -0.5 0 0 -0.5 0.5 -0.5 -0.5 
-0.5 0 -0.5 0 0 -0.5 0 0 -0.5 
0 0 -0.5 0 0 -0.5 0 0 -0.5 
0 0 -0.5 0.5 0 -0.5 -0.5 0.5 -0.5 
0 0 -0.5 0 0 -0.5 0 0 -0.5 
0 0 -0.5 0 0 -0.5 0 0 -0.5 
0 0 -0.5 0.5 0.5 -0.5 -0.5 0 -0.5 
0 0 -0.5 0 0 -0.5 0 0 -0.5 
0 0 -0.5 0 0 -0.5 0.5 0 -0.5 
-0.5 0.5 -0.5 0 0.5 -0.5 0 0 -0.5 
0 0 -0.5 0 0 -0.5 0 0.5 -0.5 
0.5 0.5 -0.5 -0.5 0.5 -0.5 0 0.5 -0.5 
0.5 0.5 -0.5 0 -0.5 -0.5 -0.5 -0.5 -0.5 
0 -0.5 -0.5 0 -0.5 -0.5 0 0 -0.5 
0 -0.5 -0.5 0 -0.5 -0.5 0.5 -0.5 -0.5 
-0.5 -0.5 -0.5 0 0 -0.5 0 0 -0.5 
0 0 -0.5 0 0 -0.5 0.5 -0.5 -0.5 
-0.5 -0.5 -0.5 0 0 -0.5 0 0 -0.5 
0.5 -0.5 -0.5 -0.5 0 -0.5 0 0 -0.5 
0 0 -0.5 0.5 0 -0.5 -0.5 0 -0.5 
0.5 0 -0.5 -0.5 0 -0.5 0 0 -0.5 
0 0 -0.5 0.5 0 -0.5 -0.5 0 -0.5 
0.5 0 -0.5 -0.5 0 -0.5 0 0 -0.5 
0 0 -0.5 0.5 0 -0.5 -0.5 0.5 -0.5 
0 0 -0.5 0 0 -0.5 0.5 0.5 -0.5 
-0.5 0.5 -0.5 0 0 -0.5 0 0 -0.5 
0 0 -0.5 0 0 -0.5 0.5 0.5 -0.5 
-0.5 0.5 -0.5 0 0.5 -0.5 0 0.5 -0.5 
0 0 -0.5 0 0.5 -0.5 0 0.5 -0.5 
0.5 0.5 -0.5 0 0.5 -0.5 -0.5 -0.5 -0.5 
0 -0.5 -0.5 0.5 -0.5 -0.5 -0.5 -0.5 -0.5 
0 -0.5 -0.5 0 0 -0.5 0 0 -0.5 
0 -0.5 -0.5 0.5 -0.5 -0.5 -0.5 -0.5 -0.5 
0 -0.5 -0.5 0 -0.5 -0.5 0.5 -0.5 -0.5 
-0.5 0 -0.5 0.5 0 -0.5 -0.5 -0.5 -0.5 
0.5 -0.5 -0.5 -0.5 0 -0.5 0.5 0 -0.5 
-0.5 -0.5 -0.5 0 0 -0.5 0 0 -0.5 
0.5 -0.5 -0.5 -0.5 0 -0.5 0.5 0 -0.5 
-0.5 0.5 -0.5 0 0 -0.5 0 0 -0.5 
0.5 0.5 -0.5 -0.5 0 -0.5 0.5 0 -0.5 
-0.5 0.5 -0.5 0.5 0.5 -0.5 -0.5 0 -0.5 
0.5 0 -0.5 -0.5 0.5 -0.5 0 0.5 -0.5 
0 0.5 -0.5 0.5 0.5 -0.5 -0.5 0.5 -0.5 
0 0.5 -0.5 0 0 -0.5 0 0 -0.5 
0 0.5 -0.5 0.5 0.5 -0.5 -0.5 0.5 -0.5 
0 0.5 -0.5 0.5 0.5 -0.5 0 -0.5 -0.5 
-0.5 -0.5 -0.5 0 -0.5 -0.5 0 -0.5 0 
0 -0.5 0 0 -0.5 -0.5 0.5 -0.5 -0.5 
-0.5 -0.5 -0.5 0 -0.5 -0.5 0 -0.5 -0.5 
0.5 -0.5 -0.5 -0.5 -0.5 -0.5 0.5 -0.5 -0.5 
-0.5 0 -0.5 0.5 0 -0.5 -0.5 -0.5 -0.5 
0.5 -0.5 -0.5 -0.5 0 -0.5 0.5 0 -0.5 
-0.5 0 0 0.5 0 0 -0.5 0 -0.5 
0.5 0 -0.5 -0.5 0 0 0.5 0 0 
-0.5 0 -0.5 0.5 0 -0.5 -0.5 0.5 -0.5 
0.5 0.5 -0.5 -0.5 0 -0.5 0.5 0 -0.5 
-0.5 0.5 -0.5 0.5 0.5 -0.5 -0.5 0.5 -0.5 
0 0.5 -0.5 0 0.5 -0.5 0.5 0.5 -0.5 
-0.5 0.5 -0.5 0 0.5 -0.5 0 0.5 -0.5 
0.5 0.5 -0.5 0 0.5 0 0 0.5 -0.5 
0 0.5 0 -0.5 -0.5 -0.5 0 -0.5 -0.5 
0 -0.5 -0.5 0 -0.5 0 0 -0.5 -0.5 
0 -0.5 -0.5 0.5 -0.5 -0.5 -0.5 -0.5 -0.5 
0 -0.5 -0.5 0 -0.5 -0.5 0.5 -0.5 -0.5 
-0.5 -0.5 -0.5 0.5 -0.5 -0.5 -0.5 -0.5 -0.5 
0.5 -0.5 -0.5 -0.5 0 -0.5 0.5 0 -0.5 
-0.5 -0.5 -0.5 0.5 -0.5 -0.5 -0.5 0 -0.5 
0.5 0 -0.5 -0.5 0 -0.5 0.5 0 -0.5 
-0.5 0 0 0.5 0 0 -0.5 0 -0.5 
0.5 0 -0.5 -0.5 0 -0.5 0.5 0 -0.5 
-0.5 0.5 -0.5 0.5 0.5 -0.5 -0.5 0 -0.5 
0.5 0 -0.5 -0.5 0.5 -0.5 0.5 0.5 -0.5 
-0.5 0.5 -0.5 0.5 0.5 -0.5 -0.5 0.5 -0.5 
0 0.5 -0.5 0 0.5 -0.5 0.5 0.5 -0.5 
-0.5 0.5 -0.5 0 0.5 -0.5 0 0.5 -0.5 
0 0.5 -0.5 0 0.5 -0.5 0.5 0.5 -0.5 
0 0.5 0 -0.5 -0.5 -0.5 0 -0.5 -0.5 
0.5 -0.5 -0.5 -0.5 -0.5 -0.5 0 -0.5 0 
0 -0.5 0 0 -0.5 0 0 -0.5 0 
0.5 -0.5 -0.5 -0.5 -0.5 0 0.5 -0.5 0 
-0.5 -0.5 0 0.5 -0.5 0 -0.5 -0.5 0 
0.5 -0.5 0 -0.5 -0.5 -0.5 0.5 -0.5 -0.5 
-0.5 0 0 0.5 0 0 -0.5 0 0 
0.5 0 0 -0.5 -0.5 -0.5 0.5 -0.5 -0.5 
-0.5 0 -0.5 0.5 0 -0.5 -0.5 0.5 -0.5 
0.5 0.5 -0.5 -0.5 0 0 0.5 0 0 
-0.5 0 0 0.5 0 0 -0.5 0.5 -0.5 
0.5 0.5 -0.5 -0.5 0.5 0 0.5 0.5 0 
-0.5 0.5 0 0.5 0.5 0 -0.5 0.5 0 
0.5 0.5 0 -0.5 0.5 -0.5 0.5 0.5 -0.5 
0 0.5 0 0 0.5 0 -0.5 0.5 -0.5 
0 0.5 -0.5 0.5 0.5 -0.5 0 0.5 0 
0 0.5 0 -0.5 -0.5 -0.5 0 -0.5 -0.5 
0 -0.5 0 0 -0.5 0 0 -0.5 0 
0 -0.5 -0.5 0.5 -0.5 -0.5 -0.5 -0.5 -0.5 
0 -0.5 0 0 -0.5 0 0.5 -0.5 -0.5 
-0.5 -0.5 -0.5 0.5 -0.5 -0.5 -0.5 -0.5 -0.5 
0.5 -0.5 -0.5 -0.5 -0.5 -0.5 0.5 -0.5 -0.5 
-0.5 0 0 0.5 0 0 -0.5 -0.5 -0.5 
0.5 -0.5 -0.5 -0.5 0 -0.5 0.5 0 -0.5 
-0.5 0 0 0.5 0 0 -0.5 0 0 
0.5 0 0 -0.5 0 0 0.5 0 0 
-0.5 0 -0.5 0.5 0 -0.5 -0.5 0.5 -0.5 
0.5 0.5 -0.5 -0.5 0 0 0.5 0 0 
-0.5 0.5 -0.5 0.5 0.5 -0.5 -0.5 0.5 -0.5 
0.5 0.5 -0.5 -0.5 0.5 -0.5 0.5 0.5 -0.5 
-0.5 0.5 -0.5 0.5 0.5 -0.5 0 0.5 0 
-0.5 0.5 -0.5 0 0.5 -0.5 0 0.5 -0.5 
0.5 0.5 -0.5 0 0.5 0 0 0.5 0 
0 0.5 0 0 0.5 0 -0.5 -0.5 0 
0 -0.5 0 0 -0.5 0 0 -0.5 0 
0 -0.5 0 0 -0.5 0 0.5 -0.5 0 
-0.5 -0.5 0 0 -0.5 0 0 -0.5 0 
0.5 -0.5 0 -0.5 -0.5 0 0.5 -0.5 0 
-0.5 -0.5 0 0.5 -0.5 0 -0.5 -0.5 0 
0.5 -0.5 0 -0.5 0 0 0.5 0 0 
-0.5 -0.5 0 0.5 -0.5 0 -0.5 0 0 
0.5 0 0 -0.5 0 0 0.5 0 0 
-0.5 0 0 0.5 0 0 -0.5 0 0 
0.5 0 0 -0.5 0 0 0.5 0 0 
-0.5 0.5 0 0.5 0.5 0 -0.5 0 0 
0.5 0 0 -0.5 0.5 0 0.5 0.5 0 
-0.5 0.5 0 0.5 0.5 0 -0.5 0.5 0 
0.5 0.5 0 -0.5 0.5 0 0.5 0.5 0 
0 0.5 0 -0.5 0.5 0 0.5 0.5 0 
0 0.5 0 0 0.5 0 0 0.5 0 
0 0.5 0 0 0.5 0 0 0.5 0 
-0.5 -0.5 -0.5 0 -0.5 0 0 -0.5 0 
0 -0.5 0 0 -0.5 0 0 -0.5 0 
0 -0.5 0 0 -0.5 0 0.5 -0.5 -0.5 
-0.5 -0.5 0 0.5 -0.5 0 -0.5 -0.5 -0.5 
0 -0.5 0 0 -0.5 0 0.5 -0.5 -0.5 
-0.5 0 0 0.5 0 0 -0.5 -0.5 0 
0.5 -0.5 0 -0.5 -0.5 -0.5 0.5 -0.5 -0.5 
-0.5 0 0 0.5 0 0 -0.5 0 0 
0.5 0 0 -0.5 0 0 0.5 0 0 
-0.5 0 0 0.5 0 0 -0.5 0 0 
0.5 0 0 -0.5 0 0 0.5 0 0 
-0.5 0 0 0.5 0 0 -0.5 0.5 -0.5 
0.5 0.5 -0.5 -0.5 0.5 0 0.5 0.5 0 
-0.5 0 0 0.5 0 0 -0.5 0.5 -0.5 
0.5 0.5 -0.5 0 0.5 0 -0.5 0.5 0 
0.5 0.5 0 0 0.5 0 -0.5 0.5 -0.5 
0.5 0.5 -0.5 0 0.5 0 0 0.5 0 
0 0.5 0 0 0.5 0 0 0.5 0 
0 0.5 0 0 0.5 0 0 -0.5 0 
-0.5 -0.5 0 0 -0.5 0 0 -0.5 0 
0 -0.5 0 0 -0.5 0 0 -0.5 0 
0 -0.5 0 0.5 -0.5 0 -0.5 -0.5 0 
0 -0.5 0 0 -0.5 0 0.5 -0.5 0 
-0.5 -0.5 0 0.5 -0.5 0 -0.5 -0.5 0 
0.5 -0.5 0 -0.5 0 0 0.5 0 0 
-0.5 -0.5 0 0.5 -0.5 0 -0.5 0 0 
0.5 0 0 -0.5 0 0 0.5 0 0 
-0.5 0 0 0.5 0 0 -0.5 0 0 
0.5 0 0 -0.5 0 0 0.5 0 0 
-0.5 0 0 0.5 0 0 -0.5 0 0 
0.5 0 0 -0.5 0.5 0 0.5 0.5 0 
-0.5 0 0 0.5 0 0 -0.5 0.5 0 
0.5 0.5 0 -0.5 0.5 0 0.5 0.5 0 
-0.5 0.5 0 0.5 0.5 0 0 0.5 0 
-0.5 0.5 0 0.5 0.5 0 0 0.5 0 
0 0.5 0 0 0.5 0 0 0.5 0 
0 0.5 0 0 0.5 0 0 0.5 0 
0 0.5 0 -0.5 -0.5 0.5 0 -0.5 0 
0 -0.5 0 0 -0.5 0 0 -0.5 0 
0 -0.5 0 0 -0.5 0 0 -0.5 0 
0.5 -0.5 0.5 -0.5 -0.5 0 0.5 -0.5 0 
-0.5 -0.5 0.5 0 -0.5 0 0 -0.5 0 
0.5 -0.5 0.5 -0.5 0 0 0.5 0 0 
-0.5 -0.5 0 0.5 -0.5 0 -0.5 -0.5 0.5 
0.5 -0.5 0.5 -0.5 0 0 0.5 0 0 
-0.5 0 0 0.5 0 0 -0.5 0 0 
0.5 0 0 -0.5 0 0 0.5 0 0 