# vtk DataFile Version 4.2
vtk output
ASCII
DATASET POLYDATA
POINTS 8204 float
31 6 1 32 6 1 33 6 1 
34 6 1 35 6 1 36 6 1 
37 6 1 38 6 1 39 6 1 
27 7 1 28 7 1 29 7 1 
30 7 1 31 7 1 32 7 1 
33 7 1 34 7 1 35 7 1 
36 7 1 37 7 1 38 7 1 
39 7 1 40 7 1 41 7 1 
42 7 1 43 7 1 24 8 1 
25 8 1 26 8 1 27 8 1 
28 8 1 29 8 1 30 8 1 
31 8 1 32 8 1 33 8 1 
34 8 1 35 8 1 36 8 1 
37 8 1 38 8 1 39 8 1 
40 8 1 41 8 1 42 8 1 
43 8 1 44 8 1 45 8 1 
46 8 1 22 9 1 23 9 1 
24 9 1 25 9 1 26 9 1 
27 9 1 28 9 1 29 9 1 
30 9 1 31 9 1 32 9 1 
33 9 1 34 9 1 35 9 1 
36 9 1 37 9 1 38 9 1 
39 9 1 40 9 1 41 9 1 
42 9 1 43 9 1 44 9 1 
45 9 1 46 9 1 47 9 1 
48 9 1 20 10 1 21 10 1 
22 10 1 23 10 1 24 10 1 
25 10 1 26 10 1 27 10 1 
28 10 1 29 10 1 30 10 1 
31 10 1 32 10 1 33 10 1 
34 10 1 35 10 0 36 10 1 
37 10 1 38 10 1 39 10 1 
40 10 1 41 10 1 42 10 1 
43 10 1 44 10 1 45 10 1 
46 10 1 47 10 1 48 10 1 
49 10 1 50 10 1 19 11 1 
20 11 1 21 11 1 22 11 1 
23 11 1 24 11 1 25 11 1 
26 11 1 27 11 1 28 11 0 
29 11 1 30 11 1 31 11 1 
32 11 1 33 11 1 34 11 1 
35 11 1 36 11 1 37 11 1 
38 11 1 39 11 1 40 11 1 
41 11 1 42 11 0 43 11 1 
44 11 1 45 11 1 46 11 1 
47 11 1 48 11 1 49 11 1 
50 11 1 51 11 1 17 12 1 
18 12 1 19 12 1 20 12 1 
21 12 1 22 12 1 23 12 1 
24 12 1 25 12 1 26 12 1 
27 12 1 28 12 1 29 12 1 
30 12 1 31 12 1 32 12 1 
33 12 1 34 12 1 35 12 1 
36 12 1 37 12 1 38 12 1 
39 12 1 40 12 1 41 12 1 
42 12 1 43 12 1 44 12 1 
45 12 1 46 12 1 47 12 1 
48 12 1 49 12 1 50 12 1 
51 12 1 52 12 1 53 12 1 
16 13 1 17 13 1 18 13 1 
19 13 1 20 13 1 21 13 1 
22 13 1 23 13 1 24 13 1 
25 13 1 26 13 1 27 13 1 
28 13 1 29 13 1 30 13 1 
31 13 1 32 13 1 33 13 1 
34 13 1 35 13 1 36 13 1 
37 13 1 38 13 1 39 13 1 
40 13 1 41 13 1 42 13 1 
43 13 1 44 13 1 45 13 1 
46 13 1 47 13 1 48 13 1 
49 13 1 50 13 1 51 13 1 
52 13 1 53 13 1 54 13 1 
15 14 1 16 14 1 17 14 1 
18 14 1 19 14 1 20 14 1 
21 14 1 22 14 1 23 14 1 
24 14 1 25 14 1 26 14 1 
27 14 1 28 14 1 29 14 1 
30 14 1 31 14 1 32 14 1 
33 14 1 34 14 1 35 14 1 
36 14 1 37 14 1 38 14 1 
39 14 1 40 14 1 41 14 1 
42 14 1 43 14 1 44 14 1 
45 14 1 46 14 1 47 14 1 
48 14 1 49 14 1 50 14 1 
51 14 1 52 14 1 53 14 1 
54 14 1 55 14 1 14 15 1 
15 15 1 16 15 1 17 15 1 
18 15 1 19 15 1 20 15 0 
21 15 1 22 15 1 23 15 1 
24 15 1 25 15 1 26 15 1 
27 15 1 28 15 1 29 15 1 
41 15 1 42 15 1 43 15 1 
44 15 1 45 15 1 46 15 1 
47 15 1 48 15 1 49 15 1 
50 15 0 51 15 1 52 15 1 
53 15 1 54 15 1 55 15 1 
56 15 1 13 16 1 14 16 1 
15 16 1 16 16 1 17 16 1 
18 16 1 19 16 1 20 16 1 
21 16 1 22 16 1 23 16 1 
24 16 1 25 16 1 26 16 1 
44 16 1 45 16 1 46 16 1 
47 16 1 48 16 1 49 16 1 
50 16 1 51 16 1 52 16 1 
53 16 1 54 16 1 55 16 1 
56 16 1 57 16 1 12 17 1 
13 17 1 14 17 1 15 17 1 
16 17 1 17 17 1 18 17 1 
19 17 1 20 17 1 21 17 1 
22 17 1 23 17 1 24 17 1 
46 17 1 47 17 1 48 17 1 
49 17 1 50 17 1 51 17 1 
52 17 1 53 17 1 54 17 1 
55 17 1 56 17 1 57 17 1 
58 17 1 12 18 1 13 18 1 
14 18 1 15 18 1 16 18 1 
17 18 1 18 18 1 19 18 1 
20 18 1 21 18 1 22 18 1 
23 18 1 47 18 1 48 18 1 
49 18 1 50 18 1 51 18 1 
52 18 1 53 18 1 54 18 1 
55 18 1 56 18 1 57 18 1 
58 18 1 11 19 1 12 19 1 
13 19 1 14 19 1 15 19 1 
16 19 1 17 19 1 18 19 1 
19 19 1 20 19 1 21 19 1 
49 19 1 50 19 1 51 19 1 
52 19 1 53 19 1 54 19 1 
55 19 1 56 19 1 57 19 1 
58 19 1 59 19 1 10 20 1 
11 20 1 12 20 1 13 20 1 
14 20 1 15 20 0 16 20 1 
17 20 1 18 20 1 19 20 1 
20 20 1 50 20 1 51 20 1 
52 20 1 53 20 1 54 20 1 
55 20 0 56 20 1 57 20 1 
58 20 1 59 20 1 60 20 1 
10 21 1 11 21 1 12 21 1 
13 21 1 14 21 1 15 21 1 
16 21 1 17 21 1 18 21 1 
19 21 1 51 21 1 52 21 1 
53 21 1 54 21 1 55 21 1 
56 21 1 57 21 1 58 21 1 
59 21 1 60 21 1 9 22 1 
10 22 1 11 22 1 12 22 1 
13 22 1 14 22 1 15 22 1 
16 22 1 17 22 1 18 22 1 
52 22 1 53 22 1 54 22 1 
55 22 1 56 22 1 57 22 1 
58 22 1 59 22 1 60 22 1 
61 22 1 9 23 1 10 23 1 
11 23 1 12 23 1 13 23 1 
14 23 1 15 23 1 16 23 1 
17 23 1 18 23 1 52 23 1 
53 23 1 54 23 1 55 23 1 
56 23 1 57 23 1 58 23 1 
59 23 1 60 23 1 61 23 1 
8 24 1 9 24 1 10 24 1 
11 24 1 12 24 1 13 24 1 
14 24 1 15 24 1 16 24 1 
17 24 1 53 24 1 54 24 1 
55 24 1 56 24 1 57 24 1 
58 24 1 59 24 1 60 24 1 
61 24 1 62 24 1 8 25 1 
9 25 1 10 25 1 11 25 1 
12 25 1 13 25 1 14 25 1 
15 25 1 16 25 1 54 25 1 
55 25 1 56 25 1 57 25 1 
58 25 1 59 25 1 60 25 1 
61 25 1 62 25 1 8 26 1 
9 26 1 10 26 1 11 26 1 
12 26 1 13 26 1 14 26 1 
15 26 1 16 26 1 54 26 1 
55 26 1 56 26 1 57 26 1 
58 26 1 59 26 1 60 26 1 
61 26 1 62 26 1 7 27 1 
8 27 1 9 27 1 10 27 1 
11 27 1 12 27 1 13 27 1 
14 27 1 15 27 1 55 27 1 
56 27 1 57 27 1 58 27 1 
59 27 1 60 27 1 61 27 1 
62 27 1 63 27 1 7 28 1 
8 28 1 9 28 1 10 28 1 
11 28 0 12 28 1 13 28 1 
14 28 1 15 28 1 55 28 1 
56 28 1 57 28 1 58 28 1 
59 28 0 60 28 1 61 28 1 
62 28 1 63 28 1 7 29 1 
8 29 1 9 29 1 10 29 1 
11 29 1 12 29 1 13 29 1 
14 29 1 15 29 1 55 29 1 
56 29 1 57 29 1 58 29 1 
59 29 1 60 29 1 61 29 1 
62 29 1 63 29 1 7 30 1 
8 30 1 9 30 1 10 30 1 
11 30 1 12 30 1 13 30 1 
14 30 1 56 30 1 57 30 1 
58 30 1 59 30 1 60 30 1 
61 30 1 62 30 1 63 30 1 
6 31 1 7 31 1 8 31 1 
9 31 1 10 31 1 11 31 1 
12 31 1 13 31 1 14 31 1 
56 31 1 57 31 1 58 31 1 
59 31 1 60 31 1 61 31 1 
62 31 1 63 31 1 64 31 1 
6 32 1 7 32 1 8 32 1 
9 32 1 10 32 1 11 32 1 
12 32 1 13 32 1 14 32 1 
56 32 1 57 32 1 58 32 1 
59 32 1 60 32 1 61 32 1 
62 32 1 63 32 1 64 32 1 
6 33 1 7 33 1 8 33 1 
9 33 1 10 33 1 11 33 1 
12 33 1 13 33 1 14 33 1 
56 33 1 57 33 1 58 33 1 
59 33 1 60 33 1 61 33 1 
62 33 1 63 33 1 64 33 1 
6 34 1 7 34 1 8 34 1 
9 34 1 10 34 1 11 34 1 
12 34 1 13 34 1 14 34 1 
56 34 1 57 34 1 58 34 1 
59 34 1 60 34 1 61 34 1 
62 34 1 63 34 1 64 34 1 
6 35 1 7 35 1 8 35 1 
9 35 1 10 35 0 11 35 1 
12 35 1 13 35 1 14 35 1 
56 35 1 57 35 1 58 35 1 
59 35 1 60 35 0 61 35 1 
62 35 1 63 35 1 64 35 1 
6 36 1 7 36 1 8 36 1 
9 36 1 10 36 1 11 36 1 
12 36 1 13 36 1 14 36 1 
56 36 1 57 36 1 58 36 1 
59 36 1 60 36 1 61 36 1 
62 36 1 63 36 1 64 36 1 
6 37 1 7 37 1 8 37 1 
9 37 1 10 37 1 11 37 1 
12 37 1 13 37 1 14 37 1 
56 37 1 57 37 1 58 37 1 
59 37 1 60 37 1 61 37 1 
62 37 1 63 37 1 64 37 1 
6 38 1 7 38 1 8 38 1 
9 38 1 10 38 1 11 38 1 
12 38 1 13 38 1 14 38 1 
56 38 1 57 38 1 58 38 1 
59 38 1 60 38 1 61 38 1 
62 38 1 63 38 1 64 38 1 
6 39 1 7 39 1 8 39 1 
9 39 1 10 39 1 11 39 1 
12 39 1 13 39 1 14 39 1 
56 39 1 57 39 1 58 39 1 
59 39 1 60 39 1 61 39 1 
62 39 1 63 39 1 64 39 1 
7 40 1 8 40 1 9 40 1 
10 40 1 11 40 1 12 40 1 
13 40 1 14 40 1 56 40 1 
57 40 1 58 40 1 59 40 1 
60 40 1 61 40 1 62 40 1 
63 40 1 7 41 1 8 41 1 
9 41 1 10 41 1 11 41 1 
12 41 1 13 41 1 14 41 1 
15 41 1 55 41 1 56 41 1 
57 41 1 58 41 1 59 41 1 
60 41 1 61 41 1 62 41 1 
63 41 1 7 42 1 8 42 1 
9 42 1 10 42 1 11 42 0 
12 42 1 13 42 1 14 42 1 
15 42 1 55 42 1 56 42 1 
57 42 1 58 42 1 59 42 0 
60 42 1 61 42 1 62 42 1 
63 42 1 7 43 1 8 43 1 
9 43 1 10 43 1 11 43 1 
12 43 1 13 43 1 14 43 1 
15 43 1 55 43 1 56 43 1 
57 43 1 58 43 1 59 43 1 
60 43 1 61 43 1 62 43 1 
63 43 1 8 44 1 9 44 1 
10 44 1 11 44 1 12 44 1 
13 44 1 14 44 1 15 44 1 
16 44 1 54 44 1 55 44 1 
56 44 1 57 44 1 58 44 1 
59 44 1 60 44 1 61 44 1 
62 44 1 8 45 1 9 45 1 
10 45 1 11 45 1 12 45 1 
13 45 1 14 45 1 15 45 1 
16 45 1 54 45 1 55 45 1 
56 45 1 57 45 1 58 45 1 
59 45 1 60 45 1 61 45 1 
62 45 1 8 46 1 9 46 1 
10 46 1 11 46 1 12 46 1 
13 46 1 14 46 1 15 46 1 
16 46 1 17 46 1 53 46 1 
54 46 1 55 46 1 56 46 1 
57 46 1 58 46 1 59 46 1 
60 46 1 61 46 1 62 46 1 
9 47 1 10 47 1 11 47 1 
12 47 1 13 47 1 14 47 1 
15 47 1 16 47 1 17 47 1 
18 47 1 52 47 1 53 47 1 
54 47 1 55 47 1 56 47 1 
57 47 1 58 47 1 59 47 1 
60 47 1 61 47 1 9 48 1 
10 48 1 11 48 1 12 48 1 
13 48 1 14 48 1 15 48 1 
16 48 1 17 48 1 18 48 1 
52 48 1 53 48 1 54 48 1 
55 48 1 56 48 1 57 48 1 
58 48 1 59 48 1 60 48 1 
61 48 1 10 49 1 11 49 1 
12 49 1 13 49 1 14 49 1 
15 49 1 16 49 1 17 49 1 
18 49 1 19 49 1 51 49 1 
52 49 1 53 49 1 54 49 1 
55 49 1 56 49 1 57 49 1 
58 49 1 59 49 1 60 49 1 
10 50 1 11 50 1 12 50 1 
13 50 1 14 50 1 15 50 0 
16 50 1 17 50 1 18 50 1 
19 50 1 20 50 1 50 50 1 
51 50 1 52 50 1 53 50 1 
54 50 1 55 50 0 56 50 1 
57 50 1 58 50 1 59 50 1 
60 50 1 11 51 1 12 51 1 
13 51 1 14 51 1 15 51 1 
16 51 1 17 51 1 18 51 1 
19 51 1 20 51 1 21 51 1 
49 51 1 50 51 1 51 51 1 
52 51 1 53 51 1 54 51 1 
55 51 1 56 51 1 57 51 1 
58 51 1 59 51 1 12 52 1 
13 52 1 14 52 1 15 52 1 
16 52 1 17 52 1 18 52 1 
19 52 1 20 52 1 21 52 1 
22 52 1 23 52 1 47 52 1 
48 52 1 49 52 1 50 52 1 
51 52 1 52 52 1 53 52 1 
54 52 1 55 52 1 56 52 1 
57 52 1 58 52 1 12 53 1 
13 53 1 14 53 1 15 53 1 
16 53 1 17 53 1 18 53 1 
19 53 1 20 53 1 21 53 1 
22 53 1 23 53 1 24 53 1 
46 53 1 47 53 1 48 53 1 
49 53 1 50 53 1 51 53 1 
52 53 1 53 53 1 54 53 1 
55 53 1 56 53 1 57 53 1 
58 53 1 13 54 1 14 54 1 
15 54 1 16 54 1 17 54 1 
18 54 1 19 54 1 20 54 1 
21 54 1 22 54 1 23 54 1 
24 54 1 25 54 1 26 54 1 
44 54 1 45 54 1 46 54 1 
47 54 1 48 54 1 49 54 1 
50 54 1 51 54 1 52 54 1 
53 54 1 54 54 1 55 54 1 
56 54 1 57 54 1 14 55 1 
15 55 1 16 55 1 17 55 1 
18 55 1 19 55 1 20 55 0 
21 55 1 22 55 1 23 55 1 
24 55 1 25 55 1 26 55 1 
27 55 1 28 55 1 29 55 1 
41 55 1 42 55 1 43 55 1 
44 55 1 45 55 1 46 55 1 
47 55 1 48 55 1 49 55 1 
50 55 0 51 55 1 52 55 1 
53 55 1 54 55 1 55 55 1 
56 55 1 15 56 1 16 56 1 
17 56 1 18 56 1 19 56 1 
20 56 1 21 56 1 22 56 1 
23 56 1 24 56 1 25 56 1 
26 56 1 27 56 1 28 56 1 
29 56 1 30 56 1 31 56 1 
32 56 1 33 56 1 34 56 1 
35 56 1 36 56 1 37 56 1 
38 56 1 39 56 1 40 56 1 
41 56 1 42 56 1 43 56 1 
44 56 1 45 56 1 46 56 1 
47 56 1 48 56 1 49 56 1 
50 56 1 51 56 1 52 56 1 
53 56 1 54 56 1 55 56 1 
16 57 1 17 57 1 18 57 1 
19 57 1 20 57 1 21 57 1 
22 57 1 23 57 1 24 57 1 
25 57 1 26 57 1 27 57 1 
28 57 1 29 57 1 30 57 1 
31 57 1 32 57 1 33 57 1 
34 57 1 35 57 1 36 57 1 
37 57 1 38 57 1 39 57 1 
40 57 1 41 57 1 42 57 1 
43 57 1 44 57 1 45 57 1 
46 57 1 47 57 1 48 57 1 
49 57 1 50 57 1 51 57 1 
52 57 1 53 57 1 54 57 1 
17 58 1 18 58 1 19 58 1 
20 58 1 21 58 1 22 58 1 
23 58 1 24 58 1 25 58 1 
26 58 1 27 58 1 28 58 1 
29 58 1 30 58 1 31 58 1 
32 58 1 33 58 1 34 58 1 
35 58 1 36 58 1 37 58 1 
38 58 1 39 58 1 40 58 1 
41 58 1 42 58 1 43 58 1 
[...]
POINT_DATA 8204
SCALARS scalars double
LOOKUP_TABLE default
-0.38268339634 -0.38268339634 -0.31411549449 -0.27786210179 -0.27786210179 -0.32505759597 -0.32505759597 -0.32505759597 -0.38268336654 
-0.38268339634 -0.38268339634 -0.38268339634 -0.38268339634 -0.31411549449 -0.31411549449 -0.27786210179 -0.27786210179 -0.27786210179 
-0.27786210179 -0.32505759597 -0.32505759597 -0.32505759597 -0.38268336654 -0.38268336654 -0.38268336654 -0.38268336654 -0.38268339634 
-0.38268339634 -0.38268339634 -0.38268339634 -0.38268339634 -0.38268339634 -0.31411549449 -0.31411549449 -0.27786210179 -0.27786210179 
-0.27786210179 -0.27786210179 -0.27059805393 -0.27059805393 -0.32505759597 -0.32505759597 -0.32505759597 -0.32505759597 -0.38268336654 
-0.38268336654 -0.47862547636 -0.47862547636 -0.47862547636 -0.38268339634 -0.38268339634 -0.38268339634 -0.38268339634 -0.38268339634 
-0.38268339634 -0.38268339634 -0.31411549449 -0.31411549449 -0.27786210179 -0.32505759597 -0.27786210179 -0.27786210179 -0.27786210179 
-0.27059805393 -0.27786210179 -0.27059805393 -0.32505759597 -0.32505759597 -0.32505759597 -0.47862547636 -0.47862547636 -0.47862547636 
-0.47862547636 -0.47862547636 -0.47862547636 -0.47862547636 -0.41164341569 -0.41164341569 -0.41164341569 -0.38268339634 -0.38268339634 
-0.38268339634 -0.38268339634 -0.38268339634 -0.27786210179 -0.27786210179 -0.32505759597 -0.32505759597 -0.32505759597 -0.32505759597 
-0.27786210179 -0.27059805393 -0.27786210179 -0.27786210179 -0.27786210179 -0.27059805393 -0.47862547636 -0.47862547636 -0.47862547636 
-0.47862547636 -0.47862547636 -0.47862547636 -0.47862547636 -0.47862547636 -0.47862547636 -0.47862547636 -0.47862547636 -0.41164341569 
-0.41164341569 -0.41164341569 -0.41164341569 -0.41164341569 -0.38268339634 -0.34913557768 -0.34913557768 -0.34913557768 -0.32505759597 
-0.32505759597 -0.32505759597 -0.32505759597 -0.32505759597 -0.47862550616 -0.47862550616 -0.38268339634 -0.34913560748 -0.27786210179 
-0.27786210179 -0.47862547636 -0.47862547636 -0.47862547636 -0.47862547636 -0.47862547636 -0.47862547636 -0.47862547636 -0.47862547636 
-0.47862547636 -0.47862547636 -0.47862547636 -0.47862547636 -0.47862547636 -0.41164341569 -0.41164341569 -0.41164341569 -0.41164341569 
-0.41164341569 -0.41164341569 -0.41164341569 -0.41164341569 -0.41164341569 -0.34913557768 -0.34913557768 -0.34913557768 -0.38268336654 
-0.47862550616 -0.47862550616 -0.47862550616 -0.47862550616 -0.47862550616 -0.47862550616 -0.38268339634 -0.34913560748 -0.47862547636 
-0.47862547636 -0.47862547636 -0.47862547636 -0.47862547636 -0.47862547636 -0.47862547636 -0.47862547636 -0.47862547636 -0.47862547636 
-0.47862547636 -0.47862547636 -0.47862547636 -0.47862547636 -0.47862547636 -0.47862547636 -0.41164341569 -0.41164341569 -0.41164341569 
-0.41164341569 -0.41164341569 -0.41164341569 -0.41164341569 -0.41164341569 -0.41164341569 -0.41164341569 -0.41164341569 -0.41164341569 
-0.47862550616 -0.47862550616 -0.47862550616 -0.47862550616 -0.47862550616 -0.47862550616 -0.47862550616 -0.47862550616 -0.47862550616 
-0.38268339634 -0.47862547636 -0.47862547636 -0.47862547636 -0.47862547636 -0.47862547636 -0.47862547636 -0.47862547636 -0.47862547636 
-0.47862547636 -0.47862547636 -0.47862547636 -0.47862547636 -0.47862547636 -0.47862547636 -0.47862547636 -0.47862547636 -0.47862547636 
-0.41164341569 -0.41164341569 -0.41164341569 -0.41164341569 -0.41164341569 -0.41164341569 -0.41164341569 -0.41164341569 -0.41164341569 
-0.41164341569 -0.41164341569 -0.41164341569 -0.47862550616 -0.47862550616 -0.47862550616 -0.47862550616 -0.47862550616 -0.47862550616 
-0.47862550616 -0.47862550616 -0.47862550616 -0.47862550616 -0.47862550616 -0.47862550616 -0.47862550616 -0.47862547636 -0.47862547636 
-0.47862547636 -0.47862547636 -0.47862547636 -0.47862547636 -0.47862547636 -0.47862547636 -0.47862547636 -0.47862547636 -0.47862547636 
-0.47862547636 -0.47862547636 -0.47862547636 -0.47862547636 -0.47862547636 -0.41164341569 -0.41164341569 -0.41164341569 -0.41164341569 
-0.41164341569 -0.41164341569 -0.41164341569 -0.41164341569 -0.41164341569 -0.41164341569 -0.41164341569 -0.41164341569 -0.47862550616 
-0.47862550616 -0.47862550616 -0.47862550616 -0.47862547636 -0.47862547636 -0.47862547636 -0.47862547636 -0.47862547636 -0.47862547636 
-0.47862547636 -0.47862547636 -0.47862547636 -0.47862547636 -0.47862547636 -0.47862547636 -0.47862547636 -0.47862547636 -0.47862547636 
-0.47862547636 -0.41164341569 -0.41164341569 -0.41164341569 -0.41164341569 -0.41164341569 -0.41164341569 -0.41164341569 -0.41164341569 
-0.41164341569 -0.41164341569 -0.41164341569 -0.41164341569 -0.47862550616 -0.47862550616 -0.47862547636 -0.47862547636 -0.47862547636 
-0.47862547636 -0.47862547636 -0.47862547636 -0.47862547636 -0.47862547636 -0.47862547636 -0.47862547636 -0.47862547636 -0.47862547636 
-0.47862547636 -0.47862547636 -0.41164341569 -0.41164341569 -0.41164341569 -0.41164341569 -0.41164341569 -0.41164341569 -0.41164341569 
-0.41164341569 -0.41164341569 -0.41164341569 -0.41164341569 -0.41164341569 -0.47862550616 -0.47862547636 -0.47862547636 -0.47862547636 
-0.47862547636 -0.47862547636 -0.47862547636 -0.47862547636 -0.47862547636 -0.47862547636 -0.47862547636 -0.47862547636 -0.47862547636 
-0.47862547636 -0.41164341569 -0.41164341569 -0.41164341569 -0.41164341569 -0.41164341569 -0.41164341569 -0.41164341569 -0.41164341569 
-0.41164341569 -0.41164341569 -0.41164341569 -0.41164341569 -0.47862547636 -0.47862547636 -0.47862547636 -0.47862547636 -0.47862547636 
-0.47862547636 -0.47862547636 -0.47862547636 -0.47862547636 -0.47862547636 -0.47862547636 -0.47862547636 -0.41164341569 -0.41164341569 
-0.41164341569 -0.41164341569 -0.41164341569 -0.41164341569 -0.41164341569 -0.41164341569 -0.41164341569 -0.41164341569 -0.41164341569 
-0.47862547636 -0.47862547636 -0.47862547636 -0.47862547636 -0.47862547636 -0.47862547636 -0.47862547636 -0.47862547636 -0.47862547636 
-0.47862547636 -0.47862547636 -0.41164341569 -0.41164341569 -0.41164341569 -0.41164341569 -0.41164341569 -0.41164341569 -0.41164341569 
-0.41164341569 -0.41164341569 -0.41164341569 -0.41164341569 -0.47862547636 -0.47862547636 -0.47862547636 -0.47862547636 -0.47862547636 
-0.47862547636 -0.47862547636 -0.47862547636 -0.47862547636 -0.47862547636 -0.47862547636 -0.41164341569 -0.41164341569 -0.41164341569 
-0.41164341569 -0.41164341569 -0.41164341569 -0.41164341569 -0.41164341569 -0.41164341569 -0.41164341569 -0.47862547636 -0.47862547636 
-0.47862547636 -0.47862547636 -0.47862547636 -0.47862547636 -0.47862547636 -0.47862547636 -0.47862547636 -0.47862547636 -0.41164341569 
-0.41164341569 -0.41164341569 -0.41164341569 -0.41164341569 -0.41164341569 -0.41164341569 -0.41164341569 -0.41164341569 -0.41164341569 
-0.47862547636 -0.47862547636 -0.47862547636 -0.47862547636 -0.47862547636 -0.47862547636 -0.47862547636 -0.47862547636 -0.47862547636 
-0.41933006048 -0.41164341569 -0.41164341569 -0.41164341569 -0.41164341569 -0.41164341569 -0.41164341569 -0.41164341569 -0.41164341569 
-0.41164341569 -0.41164341569 -0.47862547636 -0.47862547636 -0.47862547636 -0.47862547636 -0.47862547636 -0.47862547636 -0.47862547636 
-0.47862547636 -0.41933006048 -0.41933006048 -0.41164341569 -0.41164341569 -0.41164341569 -0.41164341569 -0.41164341569 -0.41164341569 
-0.41164341569 -0.41164341569 -0.41164341569 -0.41164341569 -0.47862547636 -0.47862547636 -0.47862547636 -0.47862547636 -0.47862547636 
-0.47862547636 -0.47862547636 -0.41933006048 -0.41933006048 -0.41933006048 -0.41164341569 -0.41164341569 -0.41164341569 -0.41164341569 
-0.41164341569 -0.41164341569 -0.41164341569 -0.41164341569 -0.41164341569 -0.47862547636 -0.47862547636 -0.47862547636 -0.47862547636 
-0.47862547636 -0.47862547636 -0.41933006048 -0.41933006048 -0.41933006048 -0.38268339634 -0.41164341569 -0.41164341569 -0.41164341569 
-0.41164341569 -0.41164341569 -0.41164341569 -0.41164341569 -0.41164341569 -0.47862547636 -0.47862547636 -0.47862547636 -0.47862547636 
-0.47862547636 -0.41933006048 -0.41933006048 -0.41933006048 -0.38268339634 -0.38268339634 -0.38268339634 -0.41164341569 -0.41164341569 
-0.41164341569 -0.41164341569 -0.41164341569 -0.41164341569 -0.41164341569 -0.47862547636 -0.47862547636 -0.47862547636 -0.47862547636 
-0.41933006048 -0.41933006048 -0.41933006048 -0.38268339634 -0.38268339634 -0.38268339634 -0.38268339634 -0.32505759597 -0.41164341569 
-0.41164341569 -0.41164341569 -0.41164341569 -0.41164341569 -0.41164341569 -0.47862547636 -0.47862547636 -0.47862547636 -0.41933006048 
-0.41933006048 -0.41933006048 -0.41933006048 -0.38268339634 -0.38268339634 -0.38268339634 -0.32505759597 -0.32505759597 -0.32505759597 
-0.41164341569 -0.41164341569 -0.41164341569 -0.41164341569 -0.41164341569 -0.47862547636 -0.41933006048 -0.41933006048 -0.41933006048 
-0.41933006048 -0.41933006048 -0.32505759597 -0.38268339634 -0.38268339634 -0.38268339634 -0.32505759597 -0.32505759597 -0.32505759597 
-0.32505759597 -0.41164341569 -0.41164341569 -0.41164341569 -0.41933006048 -0.41933006048 -0.41933006048 -0.41933006048 -0.41933006048 
-0.32505759597 -0.32505759597 -0.38268339634 -0.38268339634 -0.32505759597 -0.32505759597 -0.32505759597 -0.32505759597 -0.27786210179 
-0.41164341569 -0.41164341569 -0.47862547636 -0.41933006048 -0.41933006048 -0.41933006048 -0.41933006048 -0.32505759597 -0.32505759597 
-0.32505759597 -0.38268339634 -0.38268339634 -0.32505759597 -0.32505759597 -0.32505759597 -0.32505759597 -0.32505759597 -0.27786210179 
-0.38268339634 -0.41164341569 -0.47862547636 -0.41933006048 -0.41933006048 -0.41933003068 -0.31411549449 -0.32505759597 -0.32505759597 
-0.32505759597 -0.32505759597 -0.38268339634 -0.32505759597 -0.32505759597 -0.32505759597 -0.32505759597 -0.27786210179 -0.27786210179 
-0.47862547636 -0.47862547636 -0.47862547636 -0.41933003068 -0.41933003068 -0.41933003068 -0.41164344549 -0.32505759597 -0.32505759597 
-0.32505759597 -0.32505759597 -0.38268339634 -0.32505759597 -0.32505759597 -0.32505759597 -0.27059805393 -0.27786210179 -0.34913563728 
-0.47862547636 -0.47862547636 -0.47862547636 -0.41933003068 -0.41933003068 -0.41933003068 -0.41164344549 -0.32505759597 -0.32505759597 
-0.32505759597 -0.32505759597 -0.32505759597 -0.32505759597 -0.27786210179 -0.27059805393 -0.27059805393 -0.27059805393 -0.38268339634 
-0.47862547636 -0.47862547636 -0.47862547636 -0.41933003068 -0.41933003068 -0.41933003068 -0.41933003068 -0.27059806883 -0.27059806883 
-0.32505759597 -0.32505759597 -0.32505759597 -0.27786210179 -0.27786210179 -0.27786210179 -0.27059805393 -0.32505759597 -0.47862547636 
-0.47862547636 -0.47862547636 -0.47862547636 -0.41933003068 -0.41933003068 -0.41933003068 -0.41933003068 -0.32505759597 -0.27059806883 
-0.27059806883 -0.32505759597 -0.32505759597 -0.31411549449 -0.27786210179 -0.27786210179 -0.27786210179 -0.32505759597 -0.47862547636 
-0.47862547636 -0.47862547636 -0.47862547636 -0.41933003068 -0.41933003068 -0.41933003068 -0.32505759597 -0.32505759597 -0.32505759597 
-0.27786210179 -0.27786210179 -0.32505759597 -0.38268339634 -0.31411549449 -0.27786210179 -0.32505759597 -0.32505759597 -0.32505759597 
-0.47862547636 -0.47862547636 -0.47862547636 -0.41933003068 -0.41933003068 -0.41933003068 -0.32505759597 -0.32505759597 -0.27786210179 
-0.27786210179 -0.27786210179 -0.27786210179 -0.38268339634 -0.31411549449 -0.27786210179 -0.27786210179 -0.32505759597 -0.41933003068 
-0.47862547636 -0.47862547636 -0.47862547636 -0.41933003068 -0.41933003068 -0.41933003068 -0.32505759597 -0.32505759597 -0.27786210179 
-0.27786210179 -0.27786210179 -0.27786210179 -0.38268339634 -0.31411549449 -0.27786210179 -0.41933003068 -0.41933003068 -0.47862547636 
-0.47862547636 -0.47862547636 -0.41933003068 -0.41933003068 -0.41164341569 -0.32505759597 -0.32505759597 -0.27786210179 -0.27786210179 
-0.27786210179 -0.38268339634 -0.38268339634 -0.27786210179 -0.41933003068 -0.41933003068 -0.41933003068 -0.47862547636 -0.47862547636 
-0.47862550616 -0.41933003068 -0.41933003068 -0.41933003068 -0.41164341569 -0.41164341569 -0.27786210179 -0.27786210179 -0.27786210179 
-0.38268339634 -0.38268339634 -0.38268339634 -0.41933003068 -0.41933003068 -0.41933003068 -0.41933003068 -0.47862550616 -0.47862550616 
-0.47862550616 -0.41933003068 -0.41933003068 -0.41164341569 -0.41164341569 -0.41164341569 -0.41164341569 -0.27786210179 -0.38268339634 
-0.38268339634 -0.38268339634 -0.38268339634 -0.41933003068 -0.41933003068 -0.41933003068 -0.47862550616 -0.47862550616 -0.47862550616 
-0.47862550616 -0.41933003068 -0.41164341569 -0.41164341569 -0.41164341569 -0.41164341569 -0.41164341569 -0.41164341569 -0.38268339634 
-0.38268339634 -0.38268339634 -0.41933003068 -0.41933003068 -0.41933003068 -0.47862550616 -0.47862550616 -0.47862550616 -0.47862550616 
-0.47862550616 -0.41933003068 -0.41164341569 -0.41164341569 -0.41164341569 -0.41164341569 -0.41164341569 -0.41164341569 -0.41164341569 
-0.38268339634 -0.41933003068 -0.41933003068 -0.41933003068 -0.47862550616 -0.47862550616 -0.47862550616 -0.47862550616 -0.47862550616 
-0.47862550616 -0.41164341569 -0.41164341569 -0.41164341569 -0.41164341569 -0.41164341569 -0.41164341569 -0.41164341569 -0.41164341569 
-0.41164341569 -0.41933003068 -0.41933003068 -0.41933003068 -0.47862550616 -0.47862550616 -0.47862550616 -0.47862550616 -0.47862550616 
-0.47862550616 -0.47862550616 -0.41164341569 -0.41164341569 -0.41164341569 -0.41164341569 -0.41164341569 -0.41164341569 -0.41164341569 
-0.41164341569 -0.41164341569 -0.41164341569 -0.41933003068 -0.41933003068 -0.47862550616 -0.47862550616 -0.47862550616 -0.47862550616 
-0.47862550616 -0.47862550616 -0.47862550616 -0.47862550616 -0.41164341569 -0.41164341569 -0.41164341569 -0.41164341569 -0.41164341569 
-0.41164341569 -0.41164341569 -0.41164341569 -0.41164341569 -0.41164341569 -0.41933003068 -0.47862550616 -0.47862550616 -0.47862550616 
-0.47862550616 -0.47862550616 -0.47862550616 -0.47862550616 -0.47862550616 -0.47862550616 -0.41164341569 -0.41164341569 -0.41164341569 
-0.41164341569 -0.41164341569 -0.41164341569 -0.41164341569 -0.41164341569 -0.41164341569 -0.41164341569 -0.47862550616 -0.47862550616 
-0.47862550616 -0.47862550616 -0.47862550616 -0.47862550616 -0.47862550616 -0.47862550616 -0.47862550616 -0.47862550616 -0.41164341569 
-0.41164341569 -0.41164341569 -0.41164341569 -0.41164341569 -0.41164341569 -0.41164341569 -0.41164341569 -0.41164341569 -0.41164341569 
-0.47862550616 -0.47862550616 -0.47862550616 -0.47862550616 -0.47862550616 -0.47862550616 -0.47862550616 -0.47862550616 -0.47862550616 
-0.47862550616 -0.47862550616 -0.41164341569 -0.41164341569 -0.41164341569 -0.41164341569 -0.41164341569 -0.41164341569 -0.41164341569 
-0.41164341569 -0.41164341569 -0.41164341569 -0.41164341569 -0.47862550616 -0.47862550616 -0.47862550616 -0.47862550616 -0.47862550616 
-0.47862550616 -0.47862550616 -0.47862550616 -0.47862550616 -0.47862550616 -0.47862550616 -0.41164341569 -0.41164341569 -0.41164341569 
-0.41164341569 -0.41164341569 -0.41164341569 -0.41164341569 -0.41164341569 -0.41164341569 -0.41164341569 -0.41164341569 -0.47862550616 
-0.47862550616 -0.47862550616 -0.47862550616 -0.47862550616 -0.47862550616 -0.47862550616 -0.47862550616 -0.47862550616 -0.47862550616 
-0.47862550616 -0.47862550616 -0.41164341569 -0.41164341569 -0.41164341569 -0.41164341569 -0.41164341569 -0.41164341569 -0.41164341569 
-0.41164341569 -0.41164341569 -0.41164341569 -0.41164341569 -0.41164341569 -0.47862550616 -0.47862550616 -0.47862550616 -0.47862550616 
-0.47862550616 -0.47862550616 -0.47862550616 -0.47862550616 -0.47862550616 -0.47862550616 -0.47862550616 -0.47862550616 -0.47862550616 
-0.41164341569 -0.41164341569 -0.41164341569 -0.41164341569 -0.41164341569 -0.41164341569 -0.41164341569 -0.41164341569 -0.41164341569 
-0.41164341569 -0.41164341569 -0.41164341569 -0.41164341569 -0.47862550616 -0.47862550616 -0.47862550616 -0.47862550616 -0.47862550616 
-0.47862550616 -0.47862550616 -0.47862550616 -0.47862550616 -0.47862550616 -0.47862550616 -0.47862550616 -0.47862550616 -0.47862550616 
-0.41164341569 -0.41164341569 -0.41164341569 -0.41164341569 -0.41164341569 -0.41164341569 -0.41164341569 -0.41164341569 -0.41164341569 
-0.41164341569 -0.41164341569 -0.41164341569 -0.41164341569 -0.41164341569 -0.47862550616 -0.47862550616 -0.47862550616 -0.47862550616 
-0.47862550616 -0.47862550616 -0.47862550616 -0.47862550616 -0.47862550616 -0.47862550616 -0.47862550616 -0.47862550616 -0.47862550616 
-0.47862550616 -0.47862550616 -0.47862550616 -0.41933006048 -0.41933006048 -0.41164341569 -0.41164341569 -0.41164341569 -0.41164341569 
-0.41164341569 -0.41164341569 -0.41164341569 -0.41164341569 -0.41164341569 -0.41164341569 -0.41164341569 -0.41164341569 -0.41164341569 
-0.41164341569 -0.47862550616 -0.47862550616 -0.47862550616 -0.47862550616 -0.47862550616 -0.47862550616 -0.47862550616 -0.47862550616 
-0.47862550616 -0.47862550616 -0.47862550616 -0.47862550616 -0.47862550616 -0.47862550616 -0.47862550616 -0.47862550616 -0.47862550616 
-0.47862550616 -0.47862550616 -0.41933006048 -0.41933006048 -0.41933006048 -0.41933006048 -0.41933006048 -0.41933006048 -0.41933006048 
-0.41164341569 -0.41164341569 -0.41164341569 -0.41164341569 -0.41164341569 -0.41164341569 -0.41164341569 -0.41164341569 -0.41164341569 
-0.41164341569 -0.41164341569 -0.41164341569 -0.41164341569 -0.41164341569 -0.41164341569 -0.47862550616 -0.47862550616 -0.47862550616 
-0.47862550616 -0.47862550616 -0.47862550616 -0.47862550616 -0.47862550616 -0.47862550616 -0.47862550616 -0.47862550616 -0.47862550616 
-0.47862550616 -0.47862550616 -0.47862550616 -0.47862550616 -0.47862550616 -0.41933006048 -0.41933006048 -0.41933006048 -0.41933006048 
-0.41933006048 -0.41933006048 -0.41933006048 -0.41933006048 -0.41164341569 -0.41164341569 -0.41164341569 -0.41164341569 -0.41164341569 
-0.41164341569 -0.41164341569 -0.41164341569 -0.41164341569 -0.41164341569 -0.41164341569 -0.41164341569 -0.41164341569 -0.41164341569 
-0.47862550616 -0.47862550616 -0.47862550616 -0.47862550616 -0.47862550616 -0.47862550616 -0.47862550616 -0.47862550616 -0.47862550616 
-0.47862550616 -0.47862550616 -0.47862550616 -0.47862550616 -0.47862550616 -0.47862550616 -0.47862550616 -0.41933006048 -0.41933006048 
-0.41933006048 -0.41933006048 -0.41933006048 -0.41933006048 -0.41164341569 -0.41164341569 -0.38268339634 -0.34913560748 -0.34913560748 
-0.34913560748 -0.41164341569 -0.41164341569 -0.41164341569 -0.41164341569 -0.41164341569 -0.41164341569 -0.41164341569 -0.41164341569 
-0.41164341569 -0.47862550616 -0.47862550616 -0.47862550616 -0.47862550616 -0.47862550616 -0.47862550616 -0.47862550616 -0.47862550616 
-0.47862550616 -0.47862550616 -0.47862550616 -0.47862550616 -0.47862550616 -0.32505759597 -0.32505759597 -0.41933006048 -0.41933006048 
-0.41164341569 -0.41164341569 -0.32505759597 -0.31411549449 -0.32505759597 -0.32505759597 -0.32505759597 -0.34913560748 -0.34913560748 
-0.34913560748 -0.38268336654 -0.41164341569 -0.41164341569 -0.41164341569 -0.41164341569 -0.41164341569 -0.47862550616 -0.47862550616 
-0.47862550616 -0.47862550616 -0.47862550616 -0.47862550616 -0.47862550616 -0.47862550616 -0.47862550616 -0.47862550616 -0.47862550616 
-0.32505759597 -0.32505759597 -0.32505759597 -0.32505759597 -0.27059805393 -0.32505759597 -0.32505759597 -0.32505759597 -0.32505759597 
-0.32505759597 -0.32505759597 -0.32505759597 -0.38268336654 -0.38268336654 -0.38268336654 -0.38268336654 -0.38268336654 -0.41164341569 
-0.41164341569 -0.41164341569 -0.47862550616 -0.47862550616 -0.47862550616 -0.47862550616 -0.47862550616 -0.47862550616 -0.47862550616 
-0.27786210179 -0.27786210179 -0.27059805393 -0.27059805393 -0.32505759597 -0.32505759597 -0.32505759597 -0.32505759597 -0.32505759597 
-0.32505759597 -0.32505759597 -0.32505759597 -0.32505759597 -0.38268336654 -0.38268336654 -0.38268336654 -0.38268336654 -0.38268336654 
-0.38268336654 -0.38268336654 -0.47862550616 -0.47862550616 -0.47862550616 -0.38268339634 -0.27786210179 -0.27786210179 -0.27786210179 