# vtk DataFile Version 1.0
vtk output
ASCII
DATASET POLYDATA
POINTS 7446 float
24.000000000  19.000000000  5.937359810
24.000000000  18.836500168  6.000000000
23.329599380  19.000000000  6.000000000
25.000000000  19.000000000  5.906559944
25.000000000  18.756099701  6.000000000
26.000000000  19.000000000  5.937359810
26.000000000  18.836500168  6.000000000
26.670400620  19.000000000  6.000000000
22.000000000  20.000000000  5.845990181
22.000000000  19.530099869  6.000000000
21.277700424  20.000000000  6.000000000
23.000000000  20.000000000  5.700409889
23.000000000  19.085899353  6.000000000
24.000000000  20.000000000  5.616909981
25.000000000  20.000000000  5.589690208
26.000000000  20.000000000  5.616909981
27.000000000  19.085899353  6.000000000
27.000000000  20.000000000  5.700409889
28.000000000  20.000000000  5.845990181
28.000000000  19.530099869  6.000000000
28.722299576  20.000000000  6.000000000
21.000000000  21.000000000  5.786769867
21.000000000  20.213600159  6.000000000
20.213600159  21.000000000  6.000000000
22.000000000  21.000000000  5.589690208
23.000000000  21.000000000  5.458129883
24.000000000  21.000000000  5.382669926
25.000000000  21.000000000  5.358079910
26.000000000  21.000000000  5.382669926
27.000000000  21.000000000  5.458129883
28.000000000  21.000000000  5.589690208
29.000000000  20.213600159  6.000000000
29.000000000  21.000000000  5.786769867
29.786399841  21.000000000  6.000000000
20.000000000  22.000000000  5.845990181
20.000000000  21.277700424  6.000000000
19.530099869  22.000000000  6.000000000
21.000000000  22.000000000  5.589690208
22.000000000  22.000000000  5.407539845
23.000000000  22.000000000  5.285940170
24.000000000  22.000000000  5.216189861
25.000000000  22.000000000  5.193459988
26.000000000  22.000000000  5.216189861
27.000000000  22.000000000  5.285940170
28.000000000  22.000000000  5.407539845
29.000000000  22.000000000  5.589690208
30.000000000  21.277700424  6.000000000
30.000000000  22.000000000  5.845990181
30.469900131  22.000000000  6.000000000
20.000000000  23.000000000  5.700409889
19.085899353  23.000000000  6.000000000
21.000000000  23.000000000  5.458129883
22.000000000  23.000000000  5.285940170
23.000000000  23.000000000  5.170989990
24.000000000  23.000000000  5.105060101
25.000000000  23.000000000  5.083570004
26.000000000  23.000000000  5.105060101
27.000000000  23.000000000  5.170989990
28.000000000  23.000000000  5.285940170
29.000000000  23.000000000  5.458129883
30.000000000  23.000000000  5.700409889
30.914100647  23.000000000  6.000000000
19.000000000  24.000000000  5.937359810
19.000000000  23.329599380  6.000000000
18.836500168  24.000000000  6.000000000
20.000000000  24.000000000  5.616909981
21.000000000  24.000000000  5.382669926
22.000000000  24.000000000  5.216189861
23.000000000  24.000000000  5.105060101
24.000000000  24.000000000  5.041319847
25.000000000  24.000000000  5.020540237
26.000000000  24.000000000  5.041319847
27.000000000  24.000000000  5.105060101
28.000000000  24.000000000  5.216189861
29.000000000  24.000000000  5.382669926
30.000000000  24.000000000  5.616909981
31.000000000  23.329599380  6.000000000
31.000000000  24.000000000  5.937359810
31.163499832  24.000000000  6.000000000
19.000000000  25.000000000  5.906559944
18.756099701  25.000000000  6.000000000
20.000000000  25.000000000  5.589690208
21.000000000  25.000000000  5.358079910
22.000000000  25.000000000  5.193459988
23.000000000  25.000000000  5.083570004
24.000000000  25.000000000  5.020540237
25.000000000  25.000000000  5.000000000
26.000000000  25.000000000  5.020540237
27.000000000  25.000000000  5.083570004
28.000000000  25.000000000  5.193459988
29.000000000  25.000000000  5.358079910
30.000000000  25.000000000  5.589690208
31.000000000  25.000000000  5.906559944
31.243900299  25.000000000  6.000000000
19.000000000  26.000000000  5.937359810
18.836500168  26.000000000  6.000000000
20.000000000  26.000000000  5.616909981
21.000000000  26.000000000  5.382669926
22.000000000  26.000000000  5.216189861
23.000000000  26.000000000  5.105060101
24.000000000  26.000000000  5.041319847
25.000000000  26.000000000  5.020540237
26.000000000  26.000000000  5.041319847
27.000000000  26.000000000  5.105060101
28.000000000  26.000000000  5.216189861
29.000000000  26.000000000  5.382669926
30.000000000  26.000000000  5.616909981
31.000000000  26.000000000  5.937359810
31.163499832  26.000000000  6.000000000
19.000000000  26.670400620  6.000000000
19.085899353  27.000000000  6.000000000
20.000000000  27.000000000  5.700409889
21.000000000  27.000000000  5.458129883
22.000000000  27.000000000  5.285940170
23.000000000  27.000000000  5.170989990
24.000000000  27.000000000  5.105060101
25.000000000  27.000000000  5.083570004
26.000000000  27.000000000  5.105060101
27.000000000  27.000000000  5.170989990
28.000000000  27.000000000  5.285940170
29.000000000  27.000000000  5.458129883
30.000000000  27.000000000  5.700409889
30.914100647  27.000000000  6.000000000
31.000000000  26.670400620  6.000000000
20.000000000  28.000000000  5.845990181
19.530099869  28.000000000  6.000000000
21.000000000  28.000000000  5.589690208
22.000000000  28.000000000  5.407539845
23.000000000  28.000000000  5.285940170
24.000000000  28.000000000  5.216189861
25.000000000  28.000000000  5.193459988
26.000000000  28.000000000  5.216189861
27.000000000  28.000000000  5.285940170
28.000000000  28.000000000  5.407539845
29.000000000  28.000000000  5.589690208
30.000000000  28.000000000  5.845990181
30.469900131  28.000000000  6.000000000
20.000000000  28.722299576  6.000000000
20.213600159  29.000000000  6.000000000
21.000000000  29.000000000  5.786769867
22.000000000  29.000000000  5.589690208
23.000000000  29.000000000  5.458129883
24.000000000  29.000000000  5.382669926
25.000000000  29.000000000  5.358079910
26.000000000  29.000000000  5.382669926
27.000000000  29.000000000  5.458129883
28.000000000  29.000000000  5.589690208
29.000000000  29.000000000  5.786769867
29.786399841  29.000000000  6.000000000
30.000000000  28.722299576  6.000000000
21.000000000  29.786399841  6.000000000
21.277700424  30.000000000  6.000000000
22.000000000  30.000000000  5.845990181
23.000000000  30.000000000  5.700409889
24.000000000  30.000000000  5.616909981
25.000000000  30.000000000  5.589690208
26.000000000  30.000000000  5.616909981
27.000000000  30.000000000  5.700409889
28.000000000  30.000000000  5.845990181
28.722299576  30.000000000  6.000000000
29.000000000  29.786399841  6.000000000
22.000000000  30.469900131  6.000000000
23.000000000  30.914100647  6.000000000
23.329599380  31.000000000  6.000000000
24.000000000  31.000000000  5.937359810
25.000000000  31.000000000  5.906559944
26.000000000  31.000000000  5.937359810
26.670400620  31.000000000  6.000000000
27.000000000  30.914100647  6.000000000
28.000000000  30.469900131  6.000000000
24.000000000  31.163499832  6.000000000
25.000000000  31.243900299  6.000000000
26.000000000  31.163499832  6.000000000
22.000000000  17.000000000  6.902530193
22.000000000  16.809400558  7.000000000
21.561800003  17.000000000  7.000000000
23.000000000  17.000000000  6.747220039
23.000000000  16.505599976  7.000000000
24.000000000  17.000000000  6.658140182
24.000000000  16.331300735  7.000000000
25.000000000  17.000000000  6.629109859
25.000000000  16.274499893  7.000000000
26.000000000  17.000000000  6.658140182
26.000000000  16.331300735  7.000000000
27.000000000  17.000000000  6.747220039
27.000000000  16.505599976  7.000000000
28.000000000  17.000000000  6.902530193
28.000000000  16.809400558  7.000000000
28.438199997  17.000000000  7.000000000
20.000000000  18.000000000  6.934659958
20.000000000  17.856700897  7.000000000
19.808900833  18.000000000  7.000000000
21.000000000  18.000000000  6.658140182
21.000000000  17.250400543  7.000000000
22.000000000  18.000000000  6.461609840
23.000000000  18.000000000  6.330410004
24.000000000  18.000000000  6.255169868
25.000000000  18.000000000  6.230639935
26.000000000  18.000000000  6.255169868
27.000000000  18.000000000  6.330410004
28.000000000  18.000000000  6.461609840
29.000000000  17.250400543  7.000000000
29.000000000  18.000000000  6.658140182
30.000000000  18.000000000  6.934659958
30.000000000  17.856700897  7.000000000
30.191099167  18.000000000  7.000000000
19.000000000  19.000000000  6.870769978
19.000000000  18.676599503  7.000000000
18.676599503  19.000000000  7.000000000
20.000000000  19.000000000  6.543940067
21.000000000  19.000000000  6.305049896
22.000000000  19.000000000  6.135260105
23.000000000  19.000000000  6.021910191
27.000000000  19.000000000  6.021910191
28.000000000  19.000000000  6.135260105
29.000000000  19.000000000  6.305049896
30.000000000  19.000000000  6.543940067
31.000000000  18.676599503  7.000000000
31.000000000  19.000000000  6.870769978
31.323400497  19.000000000  7.000000000
18.000000000  20.000000000  6.934659958
18.000000000  19.808900833  7.000000000
17.856700897  20.000000000  7.000000000
19.000000000  20.000000000  6.543940067
20.000000000  20.000000000  6.255169868
21.000000000  20.000000000  6.044079781
29.000000000  20.000000000  6.044079781
30.000000000  20.000000000  6.255169868
31.000000000  20.000000000  6.543940067
32.000000000  19.808900833  7.000000000
32.000000000  20.000000000  6.934659958
32.143299103  20.000000000  7.000000000
18.000000000  21.000000000  6.658140182
17.250400543  21.000000000  7.000000000
19.000000000  21.000000000  6.305049896
20.000000000  21.000000000  6.044079781
30.000000000  21.000000000  6.044079781
31.000000000  21.000000000  6.305049896
32.000000000  21.000000000  6.658140182
32.749599457  21.000000000  7.000000000
17.000000000  22.000000000  6.902530193
17.000000000  21.561800003  7.000000000
16.809400558  22.000000000  7.000000000
18.000000000  22.000000000  6.461609840
19.000000000  22.000000000  6.135260105
31.000000000  22.000000000  6.135260105
32.000000000  22.000000000  6.461609840
33.000000000  21.561800003  7.000000000
[...]
POINT_DATA 7446
FIELD FieldData 1
curv 1 7446 double
0.057116851
-0.154924974
-0.176357880
0.055467945
-0.135238767
0.061922453
-0.132012993
-0.187383845
0.055464908
-0.181533977
-0.166170582
0.057931010
-0.121634141
0.044002194
0.052346177
0.053014029
-0.123285972
0.062466647
0.058437545
-0.144732490
-0.192390352
0.057165027
-0.202962086
-0.157585010
0.045065206
0.049451914
0.048249509
0.048149094
0.048798323
0.050314933
0.052770350
-0.157585010
0.067918107
-0.202962086
0.063767567
-0.192390352
-0.144732505
0.045065213
0.048370354
0.046073265
0.044884898
0.044942535
0.045753874
0.047214240
0.049454994
0.052770350
-0.166170582
0.068009801
-0.181533977
0.062708512
-0.123285972
0.049428724
0.046073265
0.044028804
0.042502642
0.042585600
0.044060361
0.045205779
0.047172561
0.050314933
0.056270715
-0.121634141
0.058369499
-0.187383845
-0.132012993
0.044002205
0.048221610
0.044884898
0.042423181
0.039545771
0.041813474
0.042763259
0.044248331
0.045753874
0.048798360
0.053014014
-0.176357880
0.074939437
-0.154924974
0.055467531
-0.135238767
0.052346144
0.048118033
0.045000091
0.042585656
0.041813467
0.036934648
0.041813463
0.042585656
0.045000091
0.048118010
0.052346144
0.055485763
-0.135233894
0.074939437
-0.154924989
0.053014029
0.048858069
0.045753874
0.044060443
0.042763259
0.041813467
0.039545801
0.042502683
0.044884898
0.048249487
0.044002194
0.058369499
-0.132012993
-0.176357880
-0.121634141
0.056270685
0.050340097
0.047172524
0.045205817
0.044060361
0.042585600
0.042502716
0.044028830
0.046073265
0.049428724
0.062708519
-0.123285972
-0.187396139
0.068009794
-0.181533977
0.052790083
0.049455028
0.047172524
0.045809582
0.045000069
0.044884857
0.046073265
0.048370343
0.045065206
0.063767567
-0.144727483
-0.166170582
-0.202954277
0.067918114
0.052790049
0.050340075
0.048858058
0.048118010
0.048221588
0.049428724
0.045065206
0.057165027
-0.157585010
-0.192390352
-0.157585010
-0.192390352
0.058437545
0.062466644
0.053014059
0.052346144
0.044002194
0.057931010
0.055464905
-0.166170582
-0.202954277
-0.144732505
-0.123285972
-0.187396139
0.061922494
0.055467959
0.057116851
-0.176357880
-0.121634141
-0.181533977
-0.132012993
-0.135238767
-0.154924989
0.053418204
-0.117291152
-0.224624962
0.060190905
-0.113216862
0.054683708
-0.109488383
0.051946197
-0.108247146
0.050900318
-0.109290384
0.050103895
-0.112848818
0.050982289
-0.109135456
-0.209323168
0.044885762
-0.129504591
-0.229409158
0.061277129
-0.124093212
0.047651324
0.042317260
0.058475744
0.047050860
0.048564062
0.048138060
0.050292496
-0.140515134
0.060703792
0.073311180
-0.122648954
-0.165910944
0.048048969
-0.160481676
-0.201153710
0.052065127
0.043082681
0.051972050
0.047200859
0.058412600
0.059729233
0.047825307
0.051619507
-0.201161072
0.062071700
-0.160481676
0.051296294
-0.165910944
-0.122642688
0.052071229
0.042422447
0.039300255
0.053025294
0.047008909
0.051619511
-0.229409143
0.061406381
-0.129504591
0.066222735
-0.140515134
0.043082681
0.040686816
0.050604593
0.047825292
0.057233818
-0.124093212
0.056786109
-0.209323168
-0.109135456
0.047651324
0.052445110
0.060139112
0.050292496
-0.224627972
0.070724070
-0.117275536
0.052072648
-0.112848811
0.042310815
0.043136615
0.057658564
0.048138060
0.056900702
-0.113462910
0.051810704
-0.109290384
0.047277533
0.058716025
0.053587049
-0.109489925
0.051946778
-0.108247146
0.047050241
0.047050271
0.051945526
-0.108251892
0.053587954
-0.109488383
0.058716029
0.047290187
0.051810589
-0.109284252
0.056899648
-0.113216855
0.048148181
0.057664152
0.043136623
0.042317256
0.052085057
-0.112847976
0.070724525
-0.117284618
0.050292496
0.060138769
0.052445143
0.047651324
0.056783926
-0.109132834
-0.224624962
-0.124093212
0.057220660
0.047835670
0.050604582
0.040686809
0.043089416
0.066248938
-0.140515134
-0.209316030
0.061406385
-0.129504576
0.051610857
0.046998002
0.053025294
0.039300255
0.042422447
0.052071217
0.051296294
-0.122642674
-0.229409158
-0.160481676
0.062071696
0.051619511
0.047835682
0.059729233
0.058412608
0.047200859
0.051972050
0.043082681
0.052065127
0.048048966
-0.201161072
-0.165910944
-0.201153710
-0.165910944
0.073311172
0.060721241
0.050292518
0.048138060
0.048577473
0.047050860
0.058475748
0.042310815
0.047651324
0.061277166
0.044885758
-0.229409143
-0.160481676
-0.122642688
-0.140515134
-0.209316030
0.050988469
0.050106097
0.050890870
0.051945731
0.054683086
0.060191937
0.053417861
-0.224627972
-0.124093212
-0.129504576
-0.109134205
-0.112848811
-0.109284252
-0.108246446
-0.109489918
-0.113462284
-0.117274731
0.049423005
-0.063698515
-0.250392795
0.058072772
-0.067284293
0.054326247
-0.066096619
0.051998429
-0.065754481
0.050604258
-0.066058889
0.048338924
-0.067092381
0.031236202
-0.063373342
-0.209500641
0.052533988
-0.091701843
-0.187241361
0.054306496
-0.081437990
0.051018968
0.044489987
0.043930780
0.045458782
0.047998134
0.051826686
0.050957154
-0.092667818
0.060232822
0.048774406
-0.082236484
-0.179186910
0.057596881
-0.128635272
-0.135194510
0.052448940
0.036589816
0.064760335
0.050424762
-0.113069579
0.058721572
-0.184615567
0.053896949
-0.162444636
-0.116438664
0.051722977
0.053188797
-0.116447397
0.053894736
-0.162435845
0.058710232
-0.184615567
-0.113076307
0.053177278
0.051723003
-0.135207668
0.057588305
-0.128627717
0.042816639
-0.179186910
-0.082236491
0.051432647
0.051787395
-0.187241003
0.069477364
-0.091711678
0.057715315
-0.092667818
0.048251394
0.045217749
0.054454405
-0.081441410
0.029168429
-0.209500641
-0.063373342
0.047700495
0.057535741
-0.250402719
0.053143058
-0.063680768
0.051238168
-0.067085765
0.048352327
0.047095530
0.053744182
-0.067277126
0.051898107
-0.066058882
0.046057887
0.045576524
0.052827109
-0.066089943
0.051988028
-0.065761469
0.045458481
0.045457777
0.051977009
-0.065754853
0.052826755
-0.066096619
0.045588873
0.046044756
0.051907275
-0.066060036
0.053744994
-0.067284293
0.047093887
0.048353646
0.051232662
-0.067086846
0.053166594
-0.063698508
0.057236068
0.047700390
0.029173000
-0.063361280
-0.250392795
-0.081437983
0.054454923
0.045218017
0.048251390
0.057712965
-0.092682920
-0.209502831
0.069476120
-0.091708899
0.051787395
0.051432647
0.042813968
-0.082246043
-0.187241361
-0.128635272
0.057596844
0.051722966
0.053177282
0.058722414
-0.113060445
-0.179184809
-0.135194510
-0.162438348
0.053889930
0.053188805
0.051733423
0.053903304
-0.116423905
-0.184620172
-0.116423309
-0.184620172
0.058711071
0.050417241
0.064760335
0.036574263
0.052454852
0.057588317
-0.135207668
-0.162412539
-0.113060445
-0.179184809
0.048759103
0.060226735
0.050956901
0.051814586
0.047998399
0.045472343
0.043919254
0.044482742
0.051159959
0.054306410
0.052534759
-0.187241003
-0.128627717
-0.082246043
-0.092675991
-0.209502831
0.031230466
0.048344281
0.050613217
0.051997270
0.054326709
0.058072358
0.049421791
-0.250402719
-0.081440695
-0.091711476
-0.063361280
-0.067080222
-0.066053145
-0.065754853
-0.066096842
-0.067277126
-0.063680768
0.049738869
-0.034604114
-0.178434744
0.068995170
-0.029200284
0.052179091
-0.029349206
0.048639446
-0.028667664
0.047502104
0.020193793
0.048867833
-0.028745327
0.053077705
-0.029183248
0.050001644
-0.029273752
0.039748088
-0.029045988
-0.225615069
0.058751337
-0.053321104
-0.136385769
0.058417793
-0.043546371
0.039849978
0.057869889
-0.048849203
0.064055070
0.046865121
-0.046551827
-0.152646542
0.053317636
-0.078548707
-0.096031547
0.068119831
0.070984110
-0.068006672
0.053522389
-0.139110357
0.050942615
-0.110933483
-0.078935169
0.055350915
0.057886437
-0.078935169
0.050942615
-0.110933483
0.053522389
-0.139110357
-0.068006672
0.057886299
0.055349782
-0.096032545
0.053324308
-0.078569353
0.046881139
-0.152646542
-0.046551824
0.070984118
0.068116695
-0.136390612
0.058751337
-0.053321104
0.064055018
-0.048849203
0.058415603
-0.043546375
0.039748088
-0.225615069
-0.029045988
0.057842124
0.039838292
-0.178420216
0.049735066
-0.034614954
0.049994398
-0.029273752
0.069102287
-0.029201861
0.053077705
-0.029192870
0.052439082
-0.029214945
0.048859052
-0.028745325
0.048639208
-0.028827138
0.047493551
0.020178700
0.047501322
0.020193797
0.048639446
-0.028667664
0.048859447
-0.028745795
0.052179091
-0.029358843
0.053077456
-0.029191041
0.068995170
-0.029200286
0.050002366
-0.029265510
0.049738869
-0.034604114
0.039849978
0.057838187
0.039755303
-0.029047169
-0.178434744
-0.043537546
0.058407802
0.064036742
-0.048849203
-0.225610331
0.058732577
-0.053321104
0.068119824
0.070981525
0.046868045
-0.046551827
-0.136385769
-0.078548707
0.053324323
0.055350903
0.057886403
0.053528789
-0.068022527
-0.152649984
-0.096031547
-0.110922404
0.050947908
0.057886504
0.055349775
0.050947905
-0.078935169
-0.139144912
-0.078935169
-0.139144912
0.053522214
0.070981517
0.068116702
0.053324308
-0.096032545
-0.110922404
-0.068022527
-0.152649984
0.046884064
0.064053588
0.057838194
0.039838292
0.058416232
0.058732569
-0.136390612
-0.078560024
-0.046551824
-0.048849203
-0.225610331
0.039747704
0.050002348
0.053067937
0.048859455
0.047501329
0.048639208
0.052438159
0.069102414
0.049735066
-0.178420216
-0.043537546
-0.053321104
-0.029055674
-0.029274365
-0.029181419
-0.028745793
0.020193791
-0.028827140
-0.029204963
-0.029193014
-0.034606230
0.045914423
0.021175480
-0.078409977
0.054759987
0.024606118
0.052176584
0.024532700
0.047473799
0.024305668
0.015124958
0.028614212
-0.203783259
0.042456713
0.007574880
-0.102073729
0.065207005
0.008304846
0.048675165
0.008424085
0.039379939
0.040222127
0.047741704
0.048776373
-0.006312150
0.059615366
0.055629160
0.008278293
0.030557366
0.005456955
-0.154290810
0.053842377
-0.008628890
-0.076950707
0.066789418
-0.008175154
0.023327829
0.047604218
-0.018984051
0.074154243
0.040679559
-0.012674074
-0.111631647
0.057380240
-0.027459437
-0.064423434
0.063836873
0.068246655
-0.028556634
0.060508225
-0.072933212
0.055504475
-0.047856044
-0.043956872
0.049995039
0.052563656
-0.043945000
0.055496149
-0.047865186
0.060509760
-0.072937660
-0.028547103
0.052563649
0.049987298
-0.064410001
0.057380240
-0.027459437
0.040679559
-0.186934114
-0.015238490
0.068246655
0.063833155
-0.082443684
0.053875048
-0.012101239
0.074154243
-0.018991921
0.066792555
-0.008176249
0.030557370
-0.520990252
-0.005774583
0.047604185
0.023321690
-0.101284906
0.042455293
0.006755331
0.055640202
0.008278292
0.065206870
0.008301922
0.059615370
-0.006312149
0.048686270
0.008424280
0.013626005
-2.171934128
-0.002126240
0.041152060
0.044334315
-0.073238842
0.041843995
0.024428422
0.050313141
0.024305660
0.042358845
0.044327203
0.050884623
0.024581838
0.052176423
0.024556117
0.052157477
0.024532927
0.050887033
0.024583641
0.044327207
0.042385720
0.050313901
0.024323713
0.041842870
0.021175476
0.044345155
0.041152537
0.013626583
0.028492020
-0.063653864
0.008424085
0.048675165
0.059615664
-0.006328751
-0.203762606
0.065207005
0.008304846
0.055641111
0.008279644
0.042456694
0.007574880
0.023319794
0.047627769
0.030558260
0.005482188
-0.087113224
-0.008175154
0.066789441
0.074286327
-0.018982073
-0.154278532
0.053810935
-0.008616962
0.063836873
0.068245664
0.040668659
-0.012603906
-0.076868929
-0.027469359
0.057381857
0.049995046
0.052563652
0.060510710
-0.028556634
-0.111648679
-0.064417139
-0.047857266
0.055498667
0.052563649
0.049987298
0.055501934
-0.043933343
-0.072907194
-0.043942045
-0.072937332
0.060503393
0.068245664
0.063833162
0.057381857
-0.064411059
-0.047854640
-0.028547103
-0.186974511
0.040668655
0.074286029
0.047627769
0.023329521
0.066747546
0.053873204
-0.082443684
-0.027469359
-0.021952396
-0.018984225
-0.521010518
0.030558268
0.055630058
0.059615657
0.048759054
0.047714949
0.040240530
0.039380778
0.048676219
0.065206863
0.042478971
-0.101284906
-0.008176227
-0.012101236
-0.010082834
0.008292358
-0.006320722
-2.171810389
0.015112915
0.047474571
0.052175242
0.054756574
0.045914106
-0.073238842
0.008407697
0.008300619
0.006754258
-0.003163742
0.024323713
0.024556339
0.024581838
0.024447398
0.045207646
0.037379850
-0.078014232
0.049722988
0.050041962
0.050680291
0.050603453
0.050151952
0.049732570
0.037370030
0.045205858
-0.078014232
0.056336656
0.031963725
-0.101208702
0.055865489
0.041073333
0.042596519
0.050095513
0.063063130
0.035102058
0.058058523
0.040555201
0.044193629
0.044670038
-0.106232017
0.064507566
0.022669086
-0.069677033
0.040984835
0.032348718
0.075934961
0.014544757
0.050447870
0.027345760
-0.084409766
0.046628863
0.009961400
-0.025183123
0.062081300
0.010983448
0.066074364
0.005253016
0.059763208
0.006854809
-0.034222275
0.052832030
-0.004923745
-0.004906002
0.067449048
0.068861775
-0.009623288
0.052831933
-0.009985605
0.059759889
-0.025801435
0.005557057
0.068861902
0.067449629
-0.029418897
0.046785038
0.008829064
0.068841860
-0.000360948
0.061640188
0.008540180
0.046932351
-0.168481827
0.019836644
0.066204838
-0.074300468
0.024756711
0.035319556
-0.007563692
0.052273002
0.039138820
0.043958072
-0.517644465
0.033198405
0.058027904
-0.086183235
0.038456589
0.058089621
0.040555201
0.055854023
0.041054856
0.024373095
-0.000806236
0.043357082
0.039385952
0.027347207
-2.059176445
0.029037550
0.059344906
-0.060217001
0.041161034
0.050098713
0.049732506
0.049781132
0.050090704
0.050680291
0.050670099
0.050602205
0.049230468
0.049722988
0.050147891
0.049167264
0.049695693
0.051635757
0.037370030
0.037379850
0.045304045
-0.060213666
0.045586038
0.050095323
0.063065387
0.035134763
-0.078016832
0.055865463
0.041073333
0.058090921
0.040535524
0.062112398
0.031954955
0.044193123
0.044666637
-0.077957943
0.053388108
0.032382026
0.075752899
0.014503106
-0.106209576
0.075950190
0.022669086
0.050453287
0.027656149
-0.066889547
0.067412890
0.010983450
0.066073045
0.005252121
-0.084418803
0.046629012
0.009961946
0.067448094
0.068861552
0.059767425
0.006820342
-0.029499056
-0.004926063
0.052831683
0.068861954
0.067448780
0.052829135
-0.009623811
-0.034205843
-0.010834205
-0.025799096
0.059774544
0.058199435
0.061640181
0.046785127
-0.029409219
-0.009987676
0.002319104
-0.007741907
0.046107754
-0.168525919
0.034683533
0.052271962
0.066219009
-0.074308679
0.008554474
0.008862668
0.020823695
-0.010534941
0.040822636
-0.517515004
0.058090921
0.023405727
0.043367166
0.055854023
0.058009338
-0.086183235
0.039139338
0.024760012
0.044476014
0.040509775
-0.001695747
0.025754182
-2.059498072
0.049167264
0.050668806
0.049731884
0.059344906
-0.060217001
0.039385952
0.041082550
0.038471960
0.032949865
0.049744688
0.049180310
0.050090656
0.041161034
0.028551234
0.013632681
-0.203793392
0.024305832
0.050312553
0.024555890
0.052169170
0.024582669
0.050907008
0.021174837
0.041824374
-0.078400031
0.044670064
0.044193484
-0.106230773
0.040557485
0.058943488
0.035102058
0.063062876
0.050096497
0.042598173
0.041070946
0.055841736
0.031955078
0.056337029
-0.101206593
0.056724068
0.040921081
-0.073067643
0.024721660
0.058763273
0.058802437
0.024711095
0.040929656
0.056704611
-0.073041663
0.053341255
0.031442996
-0.020529035
0.040468875
0.056358278
0.071767502
0.026520068
0.043694254
0.042856239
-0.030540744
0.061422613
0.022384169
0.011871818
0.048610892
0.033154190
-0.001390648
0.061264873
0.011377444
0.022949751
0.048613030
-0.001854048
0.025453040
0.044263136
-0.000733644
0.037804641
0.062144242
-0.030876586
0.033436503
0.048768420
0.014635411
0.048297994
0.050593909
0.044652447
-0.161085069
0.046678498
0.050066598
-0.062045433
0.047156755
0.003673293
0.003613858
0.042935528
0.056538135
0.033277690
-0.517655969
0.050600279
0.038970701
-0.077666812
0.049897328
0.041070972
0.055865489
0.040590379
0.058038119
-0.001704039
0.021580625
0.034790166
0.058636606
-0.003213055
-0.237611234
0.041861586
0.024846233
-0.119926393
0.015205524
0.024582669
0.050886706
0.023904171
0.047702491
0.024555886
0.052186366
0.024561491
0.052066583
0.024305832
0.050312538
0.024355493
0.054880455
0.034180745
0.013632682
0.020966008
0.046111997
-0.166916758
0.044097241
0.063062869
0.050095439
0.042592961
-0.078482382
0.040557485
0.058943488
0.041065037
0.055825017
0.045191284
0.044193488
0.031961977
0.056336880
-0.086181380
0.043980189
0.058763273
0.058762498
0.024739567
-0.101228409
0.060132671
0.040928829
0.040922653
0.056669954
-0.062023658
0.049715053
0.056355048
0.071766123
0.026514878
-0.073046252
0.070575438
0.031451743
0.043695036
0.042858306
-0.030632326
0.058620781
0.022382922
0.048613153
0.033162270
-0.030541018
-0.004059693
0.051848445
0.011375683
0.048611872
-0.001853737
-0.001390426
0.022048872
0.041401781
-0.000732162
0.040576398
0.048306450
0.062113076
-0.030747594
0.025462668
0.040792804
0.014508487
0.038811095
-0.161109850
0.003679143
0.042947982
0.050055243
-0.062035378
0.050584409
0.033435687
0.056635838
0.003652775
0.028492844
-0.517804503
0.041037392
-0.000826235
0.034790166
0.040616330
0.038970713
-0.077666812
0.056538139
0.047166031
0.056494899
0.055825017
0.022064930
-0.002287007
-0.237831876
0.024333416
0.024561491
0.023904171
0.024887923
-0.119926393
0.058636598
0.058069102
0.049897347
0.046111997
0.054880444
0.052066587
0.047702491
0.015205520
0.005488956
0.030549314
-0.154282391
0.008278208
0.055639036
-0.006312149
0.059615366
0.041143194
0.042357836
0.020196039
0.044358373
0.044357169
0.008425709
0.048674703
0.008306078
0.065205172
0.007574880
0.042480551
-0.102076679
0.027385321
0.050448067
-0.084409766
0.014543241
0.075934879
0.032461941
0.040984929
0.022668997
0.064506829
-0.069678880
0.042855803
0.043694962
-0.030527579
0.026515229
0.071767583
0.056355674
0.040468451
0.031452332
0.053460088
-0.020562015
0.047874421
0.038587961
0.015040008
0.038588077
0.047877777
0.015005627
0.047700595
0.028972199
0.038428970
0.040896524
0.033753619
0.047769304
0.046373975
0.017286366
0.040572591
0.038596272
0.010924623
0.063378543
0.032123316
-0.000719095
0.057506751
0.039565623
-0.030623078
0.044528008
0.015974060
0.031944375
0.033943053
0.067997217
0.018731534
-0.168488979
0.058551304
0.025390070
-0.066874914
0.053574100
-0.010175628
0.030150654
0.024695681
0.073192164
-0.010468694
-0.161650792
0.042456713
0.007849263
-0.110998049
0.030564126
0.008318856
0.065205172
0.008270760
0.055574469
0.008442306
0.048674688
-0.006359654
0.059657346
0.044344760
0.048661090
0.044336744
0.047961336
0.020196039
0.020232994
0.042381071
0.040287424
0.041143190
0.039309688
-0.006312150
0.059615366
0.008405395
0.048757128
0.008278211
0.055627994
0.008292097
0.065233633
0.007043215
0.030556461
0.007551670
0.042482443
-0.144672111
0.026720941
0.075934879
0.032523964
0.040972244
-0.102075405
0.029592887
0.050448067
0.022677463
0.064505227
-0.074311025
0.035765223
0.071768060
0.056357719
0.040468510
-0.069672458
0.053058233
0.043694284
0.031449396
0.053458776
-0.030750997
0.063548438
0.038587734
0.038597025
0.047870897
-0.020546492
0.010857119
0.051517032
0.028959734
0.040897172
0.033759419
0.015008535
0.032800611
0.040569574
0.017264290
0.038588878
0.010890890
0.047773585
0.046377771
0.028783530
-0.000781538
0.015971260
0.033944659
0.039581571
-0.030641085
0.063542746
0.050386179
0.034029037
0.018348806
-0.168493569
-0.007401588
0.024709649
0.025390070
-0.066880785
0.067999817
0.044532321
0.063691698
0.029807461
-0.005926011
-0.161688700
0.008279332
0.008388826
-0.006359654
0.008270757
0.007861917
-0.110998049
0.073191456
0.053574856
0.042494372
0.065233640
0.048757121
0.039302204
0.040287424
0.020232994
0.047961332
0.048661090
0.059657339
0.055574469
0.030564122
-0.029046280
0.039748732
-0.225616291
-0.029273752
0.050002009
-0.029183183
0.053078122
-0.028747354
0.048859052
0.047501132
-0.028668648
0.048638918
-0.029358909
0.052169826
-0.029200286
0.068995170
-0.034605209
0.049738869
-0.178434625
-0.012596475
0.040672690
-0.111624733
-0.018993169
0.074286968
0.047624931
0.023321457
-0.008175559
0.066785544
-0.008617921
0.053849638
-0.076955497
0.006855234
0.059761286
-0.034247819
0.005253191
0.066089191
0.010918900
0.062099803
0.009961946
0.046628099
-0.025186663
0.033153225
0.048611466
-0.001375653
0.022394385
0.061425652
0.011845479
0.033756647
0.040897395
0.047774650
0.028960673
0.047706094
0.038429786
0.032796849
0.028972201
0.051507749
0.028969675
0.032801628
0.051528085
0.021946849
0.011377444
0.051847190
0.022383401