# vtk DataFile Version 1.0
vtk output
ASCII
DATASET POLYDATA
POINTS 1806 float
11.000000000  8.000000000  2.850239992
11.000000000  7.741549969  3.000000000
10.318499565  8.000000000  3.000000000
12.000000000  8.000000000  2.780270100
12.000000000  7.620790005  3.000000000
13.000000000  8.000000000  2.850239992
13.000000000  7.741549969  3.000000000
13.681500435  8.000000000  3.000000000
9.000000000  9.000000000  2.923439980
9.000000000  8.837160110  3.000000000
8.837160110  9.000000000  3.000000000
10.000000000  9.000000000  2.588279963
10.000000000  8.124309540  3.000000000
11.000000000  9.000000000  2.420540094
12.000000000  9.000000000  2.369479895
13.000000000  9.000000000  2.420540094
14.000000000  8.124309540  3.000000000
14.000000000  9.000000000  2.588279963
15.000000000  9.000000000  2.923439980
15.000000000  8.837160110  3.000000000
15.162799835  9.000000000  3.000000000
9.000000000  10.000000000  2.588279963
8.124309540  10.000000000  3.000000000
10.000000000  10.000000000  2.320660114
11.000000000  10.000000000  2.186719894
12.000000000  10.000000000  2.145940065
13.000000000  10.000000000  2.186719894
14.000000000  10.000000000  2.320660114
15.000000000  10.000000000  2.588279963
15.875699997  10.000000000  3.000000000
8.000000000  11.000000000  2.850239992
8.000000000  10.318499565  3.000000000
7.741549969  11.000000000  3.000000000
9.000000000  11.000000000  2.420540094
10.000000000  11.000000000  2.186719894
11.000000000  11.000000000  2.069689989
12.000000000  11.000000000  2.034060001
13.000000000  11.000000000  2.069689989
14.000000000  11.000000000  2.186719894
15.000000000  11.000000000  2.420540094
16.000000000  10.318499565  3.000000000
16.000000000  11.000000000  2.850239992
16.258399963  11.000000000  3.000000000
8.000000000  12.000000000  2.780270100
7.620790005  12.000000000  3.000000000
9.000000000  12.000000000  2.369479895
10.000000000  12.000000000  2.145940065
11.000000000  12.000000000  2.034060001
12.000000000  12.000000000  2.000000000
13.000000000  12.000000000  2.034060001
14.000000000  12.000000000  2.145940065
15.000000000  12.000000000  2.369479895
16.000000000  12.000000000  2.780270100
16.379199982  12.000000000  3.000000000
8.000000000  13.000000000  2.850239992
7.741549969  13.000000000  3.000000000
9.000000000  13.000000000  2.420540094
10.000000000  13.000000000  2.186719894
11.000000000  13.000000000  2.069689989
12.000000000  13.000000000  2.034060001
13.000000000  13.000000000  2.069689989
14.000000000  13.000000000  2.186719894
15.000000000  13.000000000  2.420540094
16.000000000  13.000000000  2.850239992
16.258399963  13.000000000  3.000000000
8.000000000  13.681500435  3.000000000
8.124309540  14.000000000  3.000000000
9.000000000  14.000000000  2.588279963
10.000000000  14.000000000  2.320660114
11.000000000  14.000000000  2.186719894
12.000000000  14.000000000  2.145940065
13.000000000  14.000000000  2.186719894
14.000000000  14.000000000  2.320660114
15.000000000  14.000000000  2.588279963
15.875699997  14.000000000  3.000000000
16.000000000  13.681500435  3.000000000
9.000000000  15.000000000  2.923439980
8.837160110  15.000000000  3.000000000
10.000000000  15.000000000  2.588279963
11.000000000  15.000000000  2.420540094
12.000000000  15.000000000  2.369479895
13.000000000  15.000000000  2.420540094
14.000000000  15.000000000  2.588279963
15.000000000  15.000000000  2.923439980
15.162799835  15.000000000  3.000000000
9.000000000  15.162799835  3.000000000
10.000000000  15.875699997  3.000000000
10.318499565  16.000000000  3.000000000
11.000000000  16.000000000  2.850239992
12.000000000  16.000000000  2.780270100
13.000000000  16.000000000  2.850239992
13.681500435  16.000000000  3.000000000
14.000000000  15.875699997  3.000000000
15.000000000  15.162799835  3.000000000
11.000000000  16.258399963  3.000000000
12.000000000  16.379199982  3.000000000
13.000000000  16.258399963  3.000000000
9.000000000  7.000000000  3.839020014
9.000000000  6.779550076  4.000000000
8.681480408  7.000000000  4.000000000
10.000000000  7.000000000  3.494620085
10.000000000  6.307909966  4.000000000
11.000000000  7.000000000  3.322249889
11.000000000  6.071859837  4.000000000
12.000000000  7.000000000  3.269769907
12.000000000  6.000000000  4.000000000
13.000000000  7.000000000  3.322249889
13.000000000  6.071859837  4.000000000
14.000000000  7.000000000  3.494620085
14.000000000  6.307909966  4.000000000
15.000000000  7.000000000  3.839020014
15.000000000  6.779550076  4.000000000
15.318499565  7.000000000  4.000000000
8.000000000  8.000000000  3.691900015
8.000000000  7.505350113  4.000000000
7.505350113  8.000000000  4.000000000
9.000000000  8.000000000  3.269769907
10.000000000  8.000000000  3.040060043
14.000000000  8.000000000  3.040060043
15.000000000  8.000000000  3.269769907
16.000000000  7.505350113  4.000000000
16.000000000  8.000000000  3.691900015
16.494600296  8.000000000  4.000000000
7.000000000  9.000000000  3.839020014
7.000000000  8.681480408  4.000000000
6.779550076  9.000000000  4.000000000
8.000000000  9.000000000  3.269769907
16.000000000  9.000000000  3.269769907
17.000000000  8.681480408  4.000000000
17.000000000  9.000000000  3.839020014
17.220399857  9.000000000  4.000000000
7.000000000  10.000000000  3.494620085
6.307909966  10.000000000  4.000000000
8.000000000  10.000000000  3.040060043
16.000000000  10.000000000  3.040060043
17.000000000  10.000000000  3.494620085
17.692100525  10.000000000  4.000000000
7.000000000  11.000000000  3.322249889
6.071859837  11.000000000  4.000000000
17.000000000  11.000000000  3.322249889
17.928100586  11.000000000  4.000000000
7.000000000  12.000000000  3.269769907
6.000000000  12.000000000  4.000000000
17.000000000  12.000000000  3.269769907
18.000000000  12.000000000  4.000000000
7.000000000  13.000000000  3.322249889
6.071859837  13.000000000  4.000000000
17.000000000  13.000000000  3.322249889
17.928100586  13.000000000  4.000000000
7.000000000  14.000000000  3.494620085
6.307909966  14.000000000  4.000000000
8.000000000  14.000000000  3.040060043
16.000000000  14.000000000  3.040060043
17.000000000  14.000000000  3.494620085
17.692100525  14.000000000  4.000000000
7.000000000  15.000000000  3.839020014
6.779550076  15.000000000  4.000000000
8.000000000  15.000000000  3.269769907
16.000000000  15.000000000  3.269769907
17.000000000  15.000000000  3.839020014
17.220399857  15.000000000  4.000000000
7.000000000  15.318499565  4.000000000
7.505350113  16.000000000  4.000000000
8.000000000  16.000000000  3.691900015
9.000000000  16.000000000  3.269769907
10.000000000  16.000000000  3.040060043
14.000000000  16.000000000  3.040060043
15.000000000  16.000000000  3.269769907
16.000000000  16.000000000  3.691900015
16.494600296  16.000000000  4.000000000
17.000000000  15.318499565  4.000000000
8.000000000  16.494600296  4.000000000
8.681480408  17.000000000  4.000000000
9.000000000  17.000000000  3.839020014
10.000000000  17.000000000  3.494620085
11.000000000  17.000000000  3.322249889
12.000000000  17.000000000  3.269769907
13.000000000  17.000000000  3.322249889
14.000000000  17.000000000  3.494620085
15.000000000  17.000000000  3.839020014
15.318499565  17.000000000  4.000000000
16.000000000  16.494600296  4.000000000
9.000000000  17.220399857  4.000000000
10.000000000  17.692100525  4.000000000
11.000000000  17.928100586  4.000000000
12.000000000  18.000000000  4.000000000
13.000000000  17.928100586  4.000000000
14.000000000  17.692100525  4.000000000
15.000000000  17.220399857  4.000000000
11.000000000  5.000000000  4.910349846
11.000000000  4.910349846  5.000000000
10.651599884  5.000000000  5.000000000
12.000000000  5.000000000  4.824649811
12.000000000  4.824649811  5.000000000
13.000000000  5.000000000  4.910349846
13.000000000  4.910349846  5.000000000
13.348400116  5.000000000  5.000000000
9.000000000  6.000000000  4.517930031
9.000000000  5.465740204  5.000000000
8.124309540  6.000000000  5.000000000
10.000000000  6.000000000  4.204579830
10.000000000  5.118460178  5.000000000
11.000000000  6.000000000  4.047749996
13.000000000  6.000000000  4.047749996
14.000000000  5.118460178  5.000000000
14.000000000  6.000000000  4.204579830
15.000000000  6.000000000  4.517930031
15.000000000  5.465740204  5.000000000
15.875699997  6.000000000  5.000000000
7.000000000  7.000000000  4.910349846
7.000000000  6.887300014  5.000000000
6.887300014  7.000000000  5.000000000
8.000000000  7.000000000  4.261740208
8.000000000  6.071859837  5.000000000
16.000000000  7.000000000  4.261740208
16.000000000  6.071859837  5.000000000
17.000000000  7.000000000  4.910349846
17.000000000  6.887300014  5.000000000
17.112699509  7.000000000  5.000000000
7.000000000  8.000000000  4.261740208
6.071859837  8.000000000  5.000000000
17.000000000  8.000000000  4.261740208
17.928100586  8.000000000  5.000000000
6.000000000  9.000000000  4.517930031
6.000000000  8.124309540  5.000000000
5.465740204  9.000000000  5.000000000
18.000000000  9.000000000  4.517930031
18.000000000  8.124309540  5.000000000
18.534299850  9.000000000  5.000000000
6.000000000  10.000000000  4.204579830
5.118460178  10.000000000  5.000000000
18.000000000  10.000000000  4.204579830
18.881500244  10.000000000  5.000000000
5.000000000  11.000000000  4.910349846
5.000000000  10.651599884  5.000000000
4.910349846  11.000000000  5.000000000
6.000000000  11.000000000  4.047749996
18.000000000  11.000000000  4.047749996
19.000000000  10.651599884  5.000000000
19.000000000  11.000000000  4.910349846
19.089599609  11.000000000  5.000000000
5.000000000  12.000000000  4.824649811
4.824649811  12.000000000  5.000000000
19.000000000  12.000000000  4.824649811
19.175300598  12.000000000  5.000000000
5.000000000  13.000000000  4.910349846
4.910349846  13.000000000  5.000000000
6.000000000  13.000000000  4.047749996
18.000000000  13.000000000  4.047749996
19.000000000  13.000000000  4.910349846
19.089599609  13.000000000  5.000000000
5.000000000  13.348400116  5.000000000
[...]
POINT_DATA 1806
FIELD FieldData 1
curv 1 1806 double
0.117858298
-0.242391542
-0.406099409
0.114422023
-0.210164279
0.105023347
-0.209514648
-0.447761357
0.110213928
-0.283736378
-0.264318913
0.126497924
-0.239366412
0.089987382
0.095887989
0.101934679
-0.243640319
0.124593750
0.162901759
-0.264317006
-0.283913553
0.139659584
-0.243640319
0.086491719
0.078426614
0.078962587
0.085106626
0.095965557
0.116713546
-0.239470422
0.124220818
-0.447761357
-0.209511787
0.089990973
0.078426614
0.069692805
0.070163935
0.076400407
0.085106626
0.101934679
-0.406066775
0.131297097
-0.242647886
0.114414230
-0.210166976
0.095881097
0.078978896
0.070226818
0.065952674
0.070163935
0.078978896
0.095887989
0.114340544
-0.210263610
0.130993679
-0.242391542
0.101934679
0.085121803
0.076339729
0.070226818
0.069692791
0.078426659
0.089990973
0.124267548
-0.209641114
-0.406099409
-0.239366412
0.116714709
0.095974289
0.085121803
0.078978896
0.078426607
0.086484894
0.140401915
-0.243579164
-0.447766960
0.162971586
-0.283806771
0.124896772
0.101928137
0.095881030
0.089987382
0.126489013
0.110257238
-0.264699399
-0.264702678
-0.243579581
-0.447766960
0.105062619
0.114347629
0.117876261
-0.406066775
-0.239470407
-0.283987254
-0.209641114
-0.210263610
-0.242651150
0.072291128
-0.084149823
-0.193934307
0.112978287
-0.072455905
0.138724640
-0.070868395
0.092565112
0.035009634
0.099029593
-0.070842184
0.097427644
-0.072454661
0.094154455
-0.074243866
-0.265559971
0.139489010
-0.158952400
-0.168634728
0.104008079
0.041558273
0.118148804
0.097974755
-0.168625876
0.139510438
-0.159090742
0.060084239
-0.475620598
-0.073033489
0.104168229
0.097835012
-0.208203882
0.125113234
-0.087232031
0.103209630
-0.072458543
0.081001662
0.080230474
0.109539367
-0.072362557
0.099025808
-0.070846871
0.138727233
-0.071186431
0.092565112
0.035009645
0.092536785
0.034980580
0.138724640
-0.070868395
0.099045470
-0.071262933
0.109566383
-0.072455905
0.080197260
0.081004158
0.103172667
-0.072519414
0.125126228
-0.084148057
0.097827345
0.104167663
0.060209107
-0.074387625
-0.187946990
-0.159010381
0.139510423
0.098035850
0.118151873
0.041560799
0.104019448
0.139531434
-0.168846428
-0.265439093
-0.168854162
-0.475321889
0.094284549
0.097380236
0.099049225
0.092540525
0.138727397
0.112956591
0.072629116
-0.208274066
-0.159149215
-0.091195352
-0.072515532
-0.071262933
0.034973539
-0.071186177
-0.072362565
-0.087222129
0.079266191
0.014948956
-0.445501953
0.096349597
0.096360035
0.016456451
0.062040478
-0.445506155
0.131052107
0.056802068
-0.150045678
0.100485906
0.088161036
0.071632385
0.091427654
0.022624401
0.115889780
0.101283833
0.088447303
-0.176319361
0.118817315
0.008055434
0.008675123
0.107974157
0.009043411
0.129397318
-0.003146288
0.118831225
0.004586607
0.004411122
0.118553832
-0.015126962
0.120371081
0.000816540
0.090661027
-0.413589001
0.057586584
0.128663525
-0.155275866
0.065727197
0.115889765
0.022628374
0.100329570
0.086046591
0.014945787
-0.445506155
0.062034234
0.074617036
0.083212472
-0.444955289
0.062378231
0.016317932
0.096349597
0.096360035
0.096293144
0.096384667
0.062040169
0.014945964
0.083189815
0.074752793
0.015180096
0.078285269
-0.445501953
0.088161036
0.100491352
0.115879439
0.022491600
-0.444880098
0.155107901
0.056803036
0.101279624
0.088426515
-0.139117554
0.123955674
0.009045303
0.129467756
-0.003570996
-0.176176801
0.118819028
0.008063814
0.115192533
0.120374076
0.118832558
0.004577135
0.003768491
-0.038668510
0.096096627
-0.412818938
0.115879633
0.091705918
0.071667083
0.100335024
0.128661796
-0.155221432
0.000816731
0.004427529
0.081388608
0.022491600
-0.444880098
0.016681237
0.096283540
0.080487020
-0.444955289
0.086046591
0.065734930
0.078285210
0.096394368
0.016317932
0.088448845
0.101284750
-0.176383421
0.022628374
0.115889765
0.074621931
0.035010312
0.083182484
0.088161528
0.100288197
0.056803346
0.131051153
-0.149973348
0.099121913
0.077242240
0.043554533
0.077799372
0.131503597
0.131490424
0.077811591
0.077228568
0.099094547
0.043568797
0.093910724
0.042371273
0.105206959
0.100883983
0.034673452
0.078316711
0.069625504
0.050576750
0.096220702
0.124836966
0.057943374
-0.413603097
0.119871333
0.065775886
-0.139223188
0.106333382
0.088107169
0.100282766
0.022821330
0.115873531
0.083189465
0.091424465
0.035010308
0.034967363
0.074621931
0.071773313
0.022624401
0.115889780
0.091131277
0.100338563
0.090871319
0.101283833
0.056740854
0.131057993
-0.155329287
0.099248625
0.131490171
0.131814867
0.077803671
-0.149983689
0.108489387
0.077229202
0.077247143
0.099067859
0.035112929
0.086788744
0.042372465
0.060542401
0.096217304
0.100868315
0.035194062
0.043850459
0.095629454
0.053680383
0.050835602
-0.413737446
0.091131382
0.022821330
0.065779090
-0.139184445
0.124824218
0.078301676
0.131523654
0.100333109
0.071773313
0.034967363
0.091424510
0.115873508
0.106331035
-0.074254818
0.060091317
-0.265454471
-0.072458543
0.103212014
-0.070846871
0.099025853
0.092569076
-0.070921235
0.138724402
-0.072456256
0.109839223
-0.084147975
0.125126138
-0.194006845
0.004571661
0.118817262
0.004411514
-0.003140453
0.129447386
0.009045300
0.107972406
0.008063814
0.118819043
0.008641860
0.034658808
0.101094216
0.078360215
0.042373426
0.093666904
0.105179928
0.003681664
0.008344204
0.118817709
0.008740132
0.004083314
0.118349873
-0.036063779
0.107945725
0.008749658
0.135207415
-0.102625087
-0.291527390
0.125112295
-0.070433378
-0.213712022
0.094186075
-0.072460137
0.109839194
-0.072404593
0.097404882
-0.070921235
0.138724402
-0.071607694
0.099148579
0.092565313
0.092320032
-0.070842184
0.099029630
-0.071597263
0.138742864
-0.072454661
0.103209615
-0.072455376
0.112964377
-0.075326689
0.060081456
-0.084325299
0.072422378
-0.246708825
0.001295284
0.129397586
0.008981172
0.107967012
-0.194203004
0.004491809
0.118831076
0.008429484
0.118584432
0.004486822
0.043525185
0.100884549
0.042374834
0.094036445
0.009124595
0.089181744
0.008714895
0.008740132
-0.014653635
0.008745430
0.008749263
0.004091021
0.105149865
0.118583642
0.107192233
-0.083999291
-0.291840255
-0.072455376
-0.071597263
-0.071607694
-0.072400704
-0.070433706
-0.213768616
0.135148793
0.118364431
0.072421148
0.112961225
0.138742864
0.092320032
0.099144779
0.097404882
0.094163559
-0.209511027
0.124220110
-0.447760761
-0.210166857
0.114425696
-0.242391974
0.130997032
-0.406096309
-0.168635100
0.139489010
-0.158952758
0.104168855
0.081001878
0.080197260
0.097831458
-0.159010977
0.139511451
-0.168853894
0.120367214
0.001313120
0.118669100
-0.015368412
0.096077144
0.124869846
0.069576845
0.050584801
0.008790499
0.135236591
-0.036115747
0.107958615
-0.158952758
-0.168635115
0.139489010
-0.159103423
-0.168804601
0.139515653
0.097828023
0.097998269
0.080197245
0.117816269
-0.242392004
-0.406096309
0.131015539
-0.447527051
-0.209602535
0.105123043
-0.210164160
0.114425696
-0.210186273
0.114127278
-0.209511027
0.124220110
-0.242809102
0.117902294
-0.447760761
0.081001885
0.041284114
-0.405570596
0.104143091
0.104091607
-0.168625534
0.139509916
-0.159157515
0.139537171
-0.159094915
0.120371625
0.118576869
-0.169017971
-0.003524246
0.096220009
0.070439585
-0.015401976
0.095843010
0.008749583
-0.036366265
0.050751008
0.118582308
-0.159103662
-0.168804899
-0.168795109
-0.159242198
0.107982121
0.139514998
0.104091622
0.041289922
-0.242809117
-0.405570596
-0.210186258
-0.209605396
-0.447527051
0.117816269
0.097964399
0.139536291
0.117902301
0.114134870
0.105129942
-0.264651477
0.110213578
-0.283736408
-0.243639648
0.140727639
0.089987986
0.095887989
0.101932995
-0.239366412
0.116711780
-0.283806771
0.162971899
-0.264698446
-0.208282992
0.072276443
-0.086956173
0.104008518
0.098036125
-0.475324869
0.094284087
-0.073116846
-0.155383423
0.129059911
0.065604366
-0.412831306
0.090659291
0.057804376
-0.139152855
0.066002861
0.106294811
-0.413738579
0.057831902
0.120057851
-0.213535547
-0.070358470
0.094175301
-0.291845143
-0.102764182
0.125170559
0.098009527
0.097914226
-0.283736408
-0.264654636
0.162905037
-0.284098506
-0.264735460
0.163106918
-0.239366412
0.116705447
-0.242976502
0.124675848
0.101932995
0.102037884
0.095874183
0.095772348
0.089987986
0.090069078
-0.243639648
0.140727565
-0.239307359
0.126404732
-0.264645219
0.110210992
-0.284171343
0.110405274
-0.283913821
0.104017183
0.104191899
-0.264391541
-0.220006362
0.072639421
-0.475865304
0.060274083
-0.085243151
-0.176246643
0.129002556
-0.412937969
0.090681493
-0.073185503
0.061480526
-0.150055140
0.065776289
-0.412955254
0.057952795
0.057612516
0.090717822
-0.244169280
-0.070433699
-0.291731834
-0.102940895
0.120048992
0.060142145
0.104169324
-0.284101069
-0.264735907
-0.239304408
-0.242976531
-0.264733315
-0.284275442
0.097804107
0.125170842
0.110358715
0.126404732
0.090069108
0.095779233
0.102037884
0.124685042
0.163377389
0.126493618
-0.239366725
0.086487561
0.078392237
0.078963600
0.085107073
0.095954217
0.124896377
-0.243579179
0.112975337
-0.072456688
0.041552342
0.118151240
0.097380489
-0.072519533
0.100486122
0.088161528
0.115879327
0.022491802
0.022624027
0.115890332
0.091132134
0.100131266
-0.072454825
0.097431265
-0.072455376
0.109536588
0.118148036
0.080110386
-0.243639648
0.125041008
-0.239304438
0.116651371
0.095954217
0.095886402
0.085107043
0.085111454
0.078963570
0.079039365
0.078403048
0.078457519
0.086494349
0.086409897
0.126476213
0.139579162
-0.239470333
0.041560665
0.080893196
-0.242922455
0.112956598
0.103155844
-0.072481260
0.100330077
0.115862079
-0.072410777
0.086006597
0.022821462
0.088052839
0.022685301
0.115873151
-0.072482817
-0.072484158
0.100428559
0.103197291
0.080751576
-0.242976487
-0.238806784
0.080125384
0.109500818
0.139881313
0.086409889
0.078446656
0.079039335
0.085111424
0.095877685
0.116642557
-0.406095862
0.117857918
-0.242391944
0.089991584
0.078423195
0.069698811
0.070238531
0.076339617
0.085110761
0.101936758
-0.447766304
0.105064802
-0.209638491
0.138724446
-0.070869341
0.099047177
-0.071263164
-0.445508569
0.079275481
0.016456440
0.071628608
0.091708578
-0.444877654
0.016681237
0.061725836
0.091440856
0.083312392
-0.070841938
0.099025764
-0.071473517
0.138743103
-0.447756529
-0.209511310
0.105025239
-0.242809117
-0.405567497
0.131727576
0.101936772
0.102032177
0.085125968
0.085111454
0.076279916
0.076325327
0.070238657
0.070416965
0.069721490
0.069750227
0.078412332
0.078457527
0.089991562
0.090069287
-0.406057835
0.117876090
-0.447532833
0.124374993
-0.242650732
0.138727412
0.099168472
-0.209728897
-0.071181744
0.071671493
0.074795596
-0.072031714
-0.444955975
0.080491066
-0.444318444
0.015024877
0.014790246
0.074819751
-0.071606793
-0.072071873
0.083335042
0.062068477
0.099148579
-0.447527051
-0.209602535
-0.405524492
-0.243063197
0.138745725
0.124332048
0.090069287
0.078446656
0.069750227
0.070416771
0.076325379
0.085111454
0.102032177
0.130646631
0.114418246
-0.210164160
0.095881097
0.078976393
0.070409589
0.066193178
0.070343293
0.078976393
0.095887989
0.114343859
-0.210263669
0.092568971
0.035010114
0.092540674
0.034981854
0.096361905
0.096361861
0.096295230
0.096388638
0.035010461
0.034976259
0.092568971
0.092320673
-0.210164160
0.114425890
-0.210186392
0.114127919
0.095874153
0.095779233
0.078943819
0.079039365
0.070278145
0.070348628
0.065952681
0.067596570
0.070278265
0.070416771
0.078960054
0.079023048
0.095874183
0.095786147
0.114351474
0.114061289
-0.210260972
0.092536934
0.092291661
-0.209975451
0.034981854
0.034932353
0.096295230
0.096320070
0.096388653
0.034969211
0.034939386
0.096320026
0.092320688
-0.210186392
-0.209972754
0.092295364
0.114135511
0.095772333
0.079023078
0.070416771
0.068102643
0.070416965
0.079039365
0.095779285
0.114053652
0.105025239
-0.209514171
0.101930238
0.085125938
0.076279975
0.070303060
0.069698811
0.078412332
0.089991562
0.117876090
-0.242650732
0.099022008
-0.070841461
0.138727412
-0.071186416
0.016459337
0.079252079
0.091440827
0.071667403
0.080491140
0.014790254
0.071628608
0.074819751
-0.070869334
0.138724461
-0.071606793
0.099148579
-0.242391914
0.117857918
-0.209605396
0.124332041
0.089987986
0.090069301
0.078412294
0.078446656
0.069698811
0.069727406
0.070238538
0.070416771
0.076280080
0.076325215
0.085125923
0.085126616
0.101936735
0.102038719
0.105057940
0.130664498
-0.209638506
0.099047206
0.138745710
-0.243063182
-0.071267836
0.091698110
0.083335042
-0.072071873
0.016681237
0.062068477
0.061719604
0.083319329
-0.071473517
-0.072031714
0.074795596
0.015030888
0.138743103
-0.242809102
-0.209731743
0.099168472
0.131708428
0.102032177
0.085111454
0.076325327
0.070416965
0.069750227
0.078446649
0.090069301
0.124375001
-0.447756618
-0.243639663
0.125051051
0.095954217
0.085122250
0.078947365
0.078392200
0.086487561
0.126492292
-0.406057835
-0.239470333
0.097428195
-0.072454818
0.118148260
0.041560665
0.112956606
-0.072481260
-0.445508569
0.022624496
0.115889840
0.100335538
-0.444955975
0.086006641
0.088107169
0.100491606
0.022821462
0.115873143
-0.072456680
0.112978511
-0.072478935
0.103199691
-0.406095862
0.041552335
-0.447527051
0.080751576
-0.239366725
0.126485586
-0.242976472
0.139881447
0.086487554
0.086423486
0.078381367
0.078446656
0.078947365
0.079039365
0.085137419
0.085111454
0.095945492
0.095886350
0.124896377
0.116642557
-0.243579179
-0.447771132
0.118151240
-0.405524492
0.080125384
-0.238804251
0.097380489
0.109495588
-0.072519533
0.115879320
0.100427918
-0.072487496
0.022491802
-0.444877684
0.091132142
-0.444318384
0.022685321
0.088056043
0.100131266
-0.072455376
-0.072410785
0.115862079
0.109531917
0.080103412
-0.405567437
-0.239307359
-0.447532833
-0.242916256
0.080893189
0.103158250
0.116651371
0.095886402
0.085111454
0.079023108
0.078446656
0.086416692
0.139579162
0.162901744
-0.264651090
0.116717376
0.101926491
0.095881030
0.089987986
0.140382126
0.110257089
-0.283984035
0.094154470
-0.091111444
0.097978257
0.104019873
0.072628863
-0.084461868
0.096084036
0.079746537
0.131059498
0.056876589
0.050900828
0.131516650
0.088491313
0.101318166
-0.083860114
0.072266571
-0.074327484
0.060131986
0.104008518
0.104141429
-0.283813447
0.110259905
-0.264733732
0.110548005
0.140380830
0.126404628
0.089987986
0.090069108
0.095874153
0.095779270
0.101926461
0.102031335
0.116704553
0.124550305
0.162968442
0.163444638
-0.264696240
0.098005474
0.097800635
-0.284349322
0.094263978
0.125184521
-0.091200925
0.096099734
0.155125171
-0.084636576
0.081375085
0.050845146
0.090895601
0.056815173
0.131522834
-0.084004864
-0.075555243
0.101316079
0.125184372
0.097914226
-0.284171999
-0.264388293
0.104166329
0.060270738
0.163174152
0.124550305
0.102031387
0.095779270
0.090069108
0.126396641
0.110594511
-0.283913642
-0.239470690
-0.406057835
0.131298885
0.114351504
0.124266803
-0.243579179
-0.447771966
-0.264696240
-0.475893795
-0.168625534
0.139509916
0.097835228
0.080216192
0.081004284
0.104168080
0.139530897
-0.193949163
-0.159149215
-0.413283348
-0.038384810
0.115060456
0.107984014
-0.149823681
0.008604802
-0.413283348
0.053661302
0.060198113
0.078040615
-0.176360071
0.131456688
-0.291662455
0.107201666
-0.014638228
-0.003208261
-0.265786618
0.129386708
-0.159011021
0.139511570
-0.168795779
0.139535025
-0.264698535
0.104193531
-0.284276307
0.103996985
-0.243579179
0.081004284
-0.238804385
0.041296557
-0.447771966
0.124266818
-0.405532032
0.117920473
0.114343859
0.114392959
0.131280199
0.105162844
-0.406057835
-0.239470676
0.080230080
-0.242914677
0.118004352
-0.447533339
-0.283983976
0.097842105
-0.264384687
0.097991385
0.139531836
0.139557943
-0.168846130
-0.475595236
0.115150221
-0.188059524
0.123977289
-0.159301519
-0.038660385
-0.412533969
0.060271904
-0.139085710
0.099411570
0.008560379
0.053697113
-0.413415164
-0.014673421
-0.155254260
0.000749945
0.131500438
0.107191660
-0.291984975
-0.159157768
-0.246821135
-0.169007570
0.129452363
0.139538050
0.098022208
-0.264391184
0.118004352
-0.242914662
-0.447533339
-0.238804385
-0.405532032
0.041296560
0.103997000
-0.284349799
0.139557943
0.105169706
0.114392973
0.117920481
-0.242647439
-0.210260972
-0.209638238
-0.159090996
-0.187859133
0.125113025
0.109534241
0.138727576
0.092536740
0.099049784
0.103172846
0.060216412
-0.168846130
-0.475594699
0.118831083
0.003737858
0.123954773
0.118577935
0.118832842
0.008055593
0.086784817
0.095658794
0.099182688
0.077178404
0.008331755
0.118818931
0.005010742
0.118364379
-0.168854833
0.118738122
-0.159243226
0.120391577
-0.243814424
0.060217813
-0.208384573
0.072131433
0.103170432
0.112942263
-0.209638223
0.099045992
-0.243062451
0.138745874
-0.210263669
0.092536740
-0.210286036
0.092295393
-0.242650732
0.138727576
-0.209957734
0.099168353
0.109534241
0.097357549
0.125126973
0.094268985
-0.187905654
-0.159149215
0.123957455
-0.169007570
0.115336284
-0.476123303
0.118832558
0.118365265
0.003745712
0.086799063
0.107892513
0.008426935
0.095520698
0.008732516
0.004916182
0.077200718
0.118350662
0.119021140
-0.169017166
-0.244058222
-0.159301519
-0.220275924
0.120400570
0.118365370
0.094289824
0.097357579
0.099168353
-0.209957734
0.092291661
-0.210286021
0.138745874
-0.243062451
0.112939119
0.072119787
-0.084462918
-0.072481096
-0.071181491
0.034981508
-0.071267389
-0.072519533
-0.073123232
0.008054649
0.008602224
-0.139060214
0.155116931
0.100335464
0.083212465
0.074753135
0.115879528
0.090660930
-0.015349088
-0.412517041
0.008711020
0.042447574
0.034725115
0.108126581
0.099405043
0.070263207
0.094364099
0.044143058
0.042449452
0.008373740
0.089235514
0.043534342
0.034762401
0.004800402
0.100711383
0.008393378
0.095895447
0.000756055
0.096228532
-0.070497431
0.090687424
-0.149897754
-0.155315802
-0.087387942
0.129203320
-0.072519526
0.115879521
-0.072307348
0.100470729
-0.071262717
0.074753135
-0.072099015
0.071807787
0.034981497
0.034938809
-0.071186163
0.083212465
-0.072033063
0.091433771
-0.072366044
0.100335114
-0.072388589
0.115862370
-0.084455378
0.155226931
-0.091278844
0.096138604
-0.139019758
0.008602526
0.099407502
-0.038723297
0.060431242
-0.412636012
0.008052980
0.108126640
0.004177657
0.086759679
0.035206217
0.042449128
0.043817885
0.035265181
0.043814961
0.042450950
0.089201286
0.008770134
0.096011251
0.008353103
-0.149911538
-0.003584965
-0.176220149
0.096224830
0.100695103
0.004896470
0.090708315
-0.070582695
0.115862370
-0.072384700
0.091433771
-0.072023764
0.034938805
0.071807787
-0.072099015
0.100476205
-0.072311237
0.129194915
-0.085369773
0.056879617
0.086001895
-0.444955736
0.062383998
0.096283577
0.015180273
0.022491720
-0.444877803
0.057801619
0.077199481
0.131471053
-0.155423343
0.090942599
0.022821359
0.091142245
0.057840575
0.050603841
-0.413395315
0.105149917
0.100925937
0.004889480
0.004890508
0.001246857
-0.036049236
0.004083753
0.078334905
0.008809401
0.096083581
-0.003161808
0.124879397
0.008353070
0.066262662
0.061310958
-0.176425487
-0.139125168
0.065615058
0.066027462
0.022491720
0.091142245
0.087989055
0.022684908
-0.444877803
0.015183276
-0.444321275
0.079442360
0.096293144
0.096327081
0.062377732
0.016543252
-0.444955736
0.086001977
0.022817377
0.022684939
0.088036902
-0.444324017
0.056876723
0.090940490
0.079819836
0.050915062
-0.155361503
0.131456926
0.001235061
0.053867288
-0.014895525
-0.412636012
0.077178299
0.004916512
0.095574811
0.008721206
0.004889823
0.101135552
-0.003587404
0.096228190
-0.176290855
0.095861256
-0.149840519
0.008354849
0.008799751
0.089211121
0.061408270
0.066027462
0.088036835
0.022684932
-0.444324017
0.088042907
-0.444321275
0.022684915
0.066028453
0.061411403
0.016543252
0.096327081
0.079466306
0.014793068
0.096393615
0.061720505
0.101321466
0.115873516
0.074729517
0.034968853
0.083310097
0.100422561
0.120046757
0.118583739
0.129431352
-0.246823490
-0.075411700
-0.072396822
-0.071608409
-0.071653843
-0.072455727
-0.102769472
0.107950836
-0.291983247
0.118584774
0.120387189
-0.159103543
-0.168800265
-0.159157723
0.135579854
-0.169017971
0.129254699
-0.085133769
-0.220270306
-0.213660076
0.106323376
-0.070735864
0.100417115
-0.072455727
0.115754604
-0.072384812
0.078288622
0.071768515
-0.071649186
0.091433771
-0.072023302
0.016543392
0.096395127
0.034968853
0.034946296
0.096317515
0.016315095
0.091434754
-0.071608409