# vtk DataFile Version 4.2
vtk output
ASCII
DATASET POLYDATA
POINTS 2401 float
35 0 0 34.7127 4.4757 0 34.6312 4.4652 1.27877 
34.9179 0 1.27877 34.3883 4.43388 2.53655 34.6729 0 2.53655 
33.9878 4.38224 3.75267 34.2692 0 3.75267 33.4364 4.31115 4.90718 
33.7132 0 4.90718 32.7431 4.22175 5.98111 33.0141 0 5.98111 
31.9193 4.11553 6.95683 32.1835 0 6.95683 30.9785 3.99423 7.81832 
31.2349 0 7.81832 29.9361 3.85983 8.55143 30.1839 0 8.55143 
28.8094 3.71455 9.14413 29.0478 0 9.14413 27.6167 3.56077 9.58668 
27.8453 0 9.58668 26.3776 3.40102 9.87182 26.596 0 9.87182 
25.1126 3.23792 9.99486 25.3205 0 9.99486 23.8424 3.07414 9.95379 
24.0398 0 9.95379 22.5878 2.91238 9.74928 22.7748 0 9.74928 
21.3695 2.75529 9.38468 21.5463 0 9.38468 20.2073 2.60545 8.86599 
20.3746 0 8.86599 19.1206 2.46532 8.20172 19.2788 0 8.20172 
18.1269 2.33721 7.40278 18.277 0 7.40278 17.2428 2.22321 6.48228 
17.3855 0 6.48228 16.4827 2.12521 5.45535 16.6191 0 5.45535 
15.859 2.0448 4.33884 15.9903 0 4.33884 15.3821 1.9833 3.15108 
15.5094 0 3.15108 15.0597 1.94174 1.91159 15.1844 0 1.91159 
14.8972 1.92078 0.640702 15.0205 0 0.640702 14.8972 1.92078 -0.640702 
15.0205 0 -0.640702 15.0597 1.94174 -1.91159 15.1844 0 -1.91159 
15.3821 1.9833 -3.15108 15.5094 0 -3.15108 15.859 2.0448 -4.33884 
15.9903 0 -4.33884 16.4827 2.12521 -5.45535 16.6191 0 -5.45535 
17.2428 2.22321 -6.48228 17.3855 0 -6.48228 18.1269 2.33721 -7.40278 
18.277 0 -7.40278 19.1206 2.46532 -8.20172 19.2788 0 -8.20172 
20.2073 2.60545 -8.86599 20.3746 0 -8.86599 21.3695 2.75529 -9.38468 
21.5463 0 -9.38468 22.5878 2.91238 -9.74928 22.7748 0 -9.74928 
23.8424 3.07414 -9.95379 24.0398 0 -9.95379 25.1126 3.23792 -9.99486 
25.3205 0 -9.99486 26.3776 3.40102 -9.87182 26.596 0 -9.87182 
27.6167 3.56077 -9.58668 27.8453 0 -9.58668 28.8094 3.71455 -9.14413 
29.0478 0 -9.14413 29.9361 3.85983 -8.55143 30.1839 0 -8.55143 
30.9785 3.99423 -7.81832 31.2349 0 -7.81832 31.9193 4.11553 -6.95683 
32.1835 0 -6.95683 32.7431 4.22175 -5.98111 33.0141 0 -5.98111 
33.4364 4.31115 -4.90718 33.7132 0 -4.90718 33.9878 4.38224 -3.75267 
34.2692 0 -3.75267 34.3883 4.43388 -2.53655 34.6729 0 -2.53655 
34.6312 4.4652 -1.27877 34.9179 0 -1.27877 33.8553 8.87791 0 
33.7759 8.85709 1.27877 33.539 8.79495 2.53655 33.1484 8.69253 3.75267 
32.6106 8.5515 4.90718 31.9344 8.37419 5.98111 31.1309 8.16349 6.95683 
30.2134 7.92287 7.81832 29.1968 7.65629 8.55143 28.0978 7.36812 9.14413 
26.9346 7.06308 9.58668 25.7262 6.7462 9.87182 24.4924 6.42267 9.99486 
23.2535 6.0978 9.95379 22.0299 5.77693 9.74928 20.8417 5.46533 9.38468 
19.7083 5.16812 8.86599 18.6483 4.89016 8.20172 17.6792 4.63604 7.40278 
16.8169 4.40992 6.48228 16.0756 4.21552 5.45535 15.4673 4.05602 4.33884 
15.0022 3.93404 3.15108 14.6878 3.85159 1.91159 14.5293 3.81003 0.640702 
14.5293 3.81003 -0.640702 14.6878 3.85159 -1.91159 15.0022 3.93404 -3.15108 
15.4673 4.05602 -4.33884 16.0756 4.21552 -5.45535 16.8169 4.40992 -6.48228 
17.6792 4.63604 -7.40278 18.6483 4.89016 -8.20172 19.7083 5.16812 -8.86599 
20.8417 5.46533 -9.38468 22.0299 5.77693 -9.74928 23.2535 6.0978 -9.95379 
24.4924 6.42267 -9.99486 25.7262 6.7462 -9.87182 26.9346 7.06308 -9.58668 
28.0978 7.36812 -9.14413 29.1968 7.65629 -8.55143 30.2134 7.92287 -7.81832 
31.1309 8.16349 -6.95683 31.9344 8.37419 -5.98111 32.6106 8.5515 -4.90718 
33.1484 8.69253 -3.75267 33.539 8.79495 -2.53655 33.7759 8.85709 -1.27877 
32.4421 13.1343 0 32.366 13.1035 1.27877 32.1389 13.0116 2.53655 
31.7647 12.8601 3.75267 31.2493 12.6514 4.90718 30.6014 12.3891 5.98111 
29.8314 12.0774 6.95683 28.9522 11.7214 7.81832 27.978 11.327 8.55143 
26.9249 10.9007 9.14413 25.8103 10.4494 9.58668 24.6523 9.9806 9.87182 
23.47 9.50195 9.99486 22.2829 9.02133 9.95379 21.1103 8.54663 9.74928 
19.9717 8.08563 9.38468 18.8856 7.64592 8.86599 17.8699 7.23471 8.20172 
16.9412 6.85875 7.40278 16.1149 6.52422 6.48228 15.4045 6.23661 5.45535 
14.8217 6.00064 4.33884 14.376 5.82018 3.15108 14.0747 5.69821 1.91159 
13.9228 5.63672 0.640702 13.9228 5.63672 -0.640702 14.0747 5.69821 -1.91159 
14.376 5.82018 -3.15108 14.8217 6.00064 -4.33884 15.4045 6.23661 -5.45535 
16.1149 6.52422 -6.48228 16.9412 6.85875 -7.40278 17.8699 7.23471 -8.20172 
18.8856 7.64592 -8.86599 19.9717 8.08563 -9.38468 21.1103 8.54663 -9.74928 
22.2829 9.02133 -9.95379 23.47 9.50195 -9.99486 24.6523 9.9806 -9.87182 
25.8103 10.4494 -9.58668 26.9249 10.9007 -9.14413 27.978 11.327 -8.55143 
28.9522 11.7214 -7.81832 29.8314 12.0774 -6.95683 30.6014 12.3891 -5.98111 
31.2493 12.6514 -4.90718 31.7647 12.8601 -3.75267 32.1389 13.0116 -2.53655 
32.366 13.1035 -1.27877 30.4962 17.1751 0 30.4246 17.1348 1.27877 
30.2112 17.0146 2.53655 29.8594 16.8165 3.75267 29.3749 16.5437 4.90718 
28.7658 16.2006 5.98111 28.0421 15.793 6.95683 27.2156 15.3275 7.81832 
26.2998 14.8118 8.55143 25.3099 14.2543 9.14413 24.2621 13.6642 9.58668 
23.1736 13.0511 9.87182 22.0622 12.4252 9.99486 20.9463 11.7967 9.95379 
19.8441 11.176 9.74928 18.7737 10.5732 9.38468 17.7528 9.99818 8.86599 
16.798 9.46046 8.20172 15.9251 8.96884 7.40278 15.1483 8.53139 6.48228 
14.4805 8.15529 5.45535 13.9327 7.84673 4.33884 13.5137 7.61076 3.15108 
13.2305 7.45126 1.91159 13.0877 7.37085 0.640702 13.0877 7.37085 -0.640702 
13.2305 7.45126 -1.91159 13.5137 7.61076 -3.15108 13.9327 7.84673 -4.33884 
14.4805 8.15529 -5.45535 15.1483 8.53139 -6.48228 15.9251 8.96884 -7.40278 
16.798 9.46046 -8.20172 17.7528 9.99818 -8.86599 18.7737 10.5732 -9.38468 
19.8441 11.176 -9.74928 20.9463 11.7967 -9.95379 22.0622 12.4252 -9.99486 
23.1736 13.0511 -9.87182 24.2621 13.6642 -9.58668 25.3099 14.2543 -9.14413 
26.2998 14.8118 -8.55143 27.2156 15.3275 -7.81832 28.0421 15.793 -6.95683 
28.7658 16.2006 -5.98111 29.3749 16.5437 -4.90718 29.8594 16.8165 -3.75267 
30.2112 17.0146 -2.53655 30.4246 17.1348 -1.27877 28.0495 20.9339 0 
27.9837 20.8848 1.27877 27.7874 20.7383 2.53655 27.4638 20.4967 3.75267 
27.0182 20.1642 4.90718 26.458 19.7461 5.98111 25.7923 19.2493 6.95683 
25.0321 18.6819 7.81832 24.1898 18.0533 8.55143 23.2793 17.3738 9.14413 
22.3156 16.6546 9.58668 21.3144 15.9073 9.87182 20.2922 15.1445 9.99486 
19.2658 14.3784 9.95379 18.252 13.6218 9.74928 17.2675 12.8871 9.38468 
16.3285 12.1863 8.86599 15.4503 11.5309 8.20172 14.6474 10.9317 7.40278 
13.933 10.3985 6.48228 13.3188 9.94007 5.45535 12.8149 9.56397 4.33884 
12.4295 9.27636 3.15108 12.169 9.08195 1.91159 12.0377 8.98395 0.640702 
12.0377 8.98395 -0.640702 12.169 9.08195 -1.91159 12.4295 9.27636 -3.15108 
12.8149 9.56397 -4.33884 13.3188 9.94007 -5.45535 13.933 10.3985 -6.48228 
14.6474 10.9317 -7.40278 15.4503 11.5309 -8.20172 16.3285 12.1863 -8.86599 
17.2675 12.8871 -9.38468 18.252 13.6218 -9.74928 19.2658 14.3784 -9.95379 
20.2922 15.1445 -9.99486 21.3144 15.9073 -9.87182 22.3156 16.6546 -9.58668 
23.2793 17.3738 -9.14413 24.1898 18.0533 -8.55143 25.0321 18.6819 -7.81832 
25.7923 19.2493 -6.95683 26.458 19.7461 -5.98111 27.0182 20.1642 -4.90718 
27.4638 20.4967 -3.75267 27.7874 20.7383 -2.53655 27.9837 20.8848 -1.27877 
25.1422 24.3489 0 25.0833 24.2918 1.27877 24.9073 24.1214 2.53655 
24.6172 23.8405 3.75267 24.2178 23.4537 4.90718 23.7157 22.9674 5.98111 
23.119 22.3895 6.95683 22.4376 21.7296 7.81832 21.6826 20.9984 8.55143 
20.8665 20.2081 9.14413 20.0026 19.3715 9.58668 19.1052 18.5024 9.87182 
18.189 17.615 9.99486 17.269 16.724 9.95379 16.3603 15.844 9.74928 
15.4778 14.9894 9.38468 14.6361 14.1743 8.86599 13.8489 13.4119 8.20172 
13.1293 12.715 7.40278 12.4889 12.0948 6.48228 11.9383 11.5616 5.45535 
11.4866 11.1242 4.33884 11.1412 10.7896 3.15108 10.9077 10.5635 1.91159 
10.79 10.4495 0.640702 10.79 10.4495 -0.640702 10.9077 10.5635 -1.91159 
11.1412 10.7896 -3.15108 11.4866 11.1242 -4.33884 11.9383 11.5616 -5.45535 
12.4889 12.0948 -6.48228 13.1293 12.715 -7.40278 13.8489 13.4119 -8.20172 
14.6361 14.1743 -8.86599 15.4778 14.9894 -9.38468 16.3603 15.844 -9.74928 
17.269 16.724 -9.95379 18.189 17.615 -9.99486 19.1052 18.5024 -9.87182 
20.0026 19.3715 -9.58668 20.8665 20.2081 -9.14413 21.6826 20.9984 -8.55143 
22.4376 21.7296 -7.81832 23.119 22.3895 -6.95683 23.7157 22.9674 -5.98111 
24.2178 23.4537 -4.90718 24.6172 23.8405 -3.75267 24.9073 24.1214 -2.53655 
25.0833 24.2918 -1.27877 21.8221 27.3641 0 21.771 27.2999 1.27877 
21.6182 27.1084 2.53655 21.3665 26.7927 3.75267 21.0198 26.358 4.90718 
20.584 25.8115 5.98111 20.0661 25.1621 6.95683 19.4746 24.4204 7.81832 
18.8194 23.5987 8.55143 18.111 22.7105 9.14413 17.3612 21.7703 9.58668 
16.5823 20.7936 9.87182 15.7871 19.7964 9.99486 14.9886 18.795 9.95379 
14.1999 17.806 9.74928 13.4339 16.8456 9.38468 12.7034 15.9295 8.86599 
12.0202 15.0728 8.20172 11.3955 14.2895 7.40278 10.8397 13.5926 6.48228 
10.3619 12.9934 5.45535 9.9698 12.5017 4.33884 9.66998 12.1258 3.15108 
9.46732 11.8716 1.91159 9.36516 11.7435 0.640702 9.36516 11.7435 -0.640702 
9.46732 11.8716 -1.91159 9.66998 12.1258 -3.15108 9.9698 12.5017 -4.33884 
10.3619 12.9934 -5.45535 10.8397 13.5926 -6.48228 11.3955 14.2895 -7.40278 
12.0202 15.0728 -8.20172 12.7034 15.9295 -8.86599 13.4339 16.8456 -9.38468 
14.1999 17.806 -9.74928 14.9886 18.795 -9.95379 15.7871 19.7964 -9.99486 
16.5823 20.7936 -9.87182 17.3612 21.7703 -9.58668 18.111 22.7105 -9.14413 
18.8194 23.5987 -8.55143 19.4746 24.4204 -7.81832 20.0661 25.1621 -6.95683 
20.584 25.8115 -5.98111 21.0198 26.358 -4.90718 21.3665 26.7927 -3.75267 
21.6182 27.1084 -2.53655 21.771 27.2999 -1.27877 18.1437 29.93 0 
18.1012 29.8598 1.27877 17.9742 29.6503 2.53655 17.7649 29.305 3.75267 
17.4767 28.8296 4.90718 17.1143 28.2318 5.98111 16.6837 27.5215 6.95683 
16.1919 26.7103 7.81832 15.6471 25.8116 8.55143 15.0582 24.84 9.14413 
14.4348 23.8117 9.58668 13.7872 22.7434 9.87182 13.126 21.6527 9.99486 
12.462 20.5574 9.95379 11.8063 19.4757 9.74928 11.1695 18.4252 9.38468 
10.562 17.4232 8.86599 9.994 16.4862 8.20172 9.47466 15.6294 7.40278 
9.01254 14.8671 6.48228 8.61523 14.2117 5.45535 8.28926 13.674 4.33884 
8.03998 13.2628 3.15108 7.87148 12.9848 1.91159 7.78654 12.8447 0.640702 
[...]
POINT_DATA 2401
SCALARS scalars double
LOOKUP_TABLE default
0.062933847591 0.062936747687 0.062151860599 0.062148292689 0.061175507597 0.061175230212 0.059996312244 0.059990635289 0.058601650503 
0.058597176274 0.055124249741 0.055119252566 0.053009886933 0.053010902544 0.050642395545 0.050642527561 0.048012755763 0.048012337773 
0.045124426751 0.045123741872 0.041994100119 0.041996143164 0.038659144273 0.038657440096 0.035172045264 0.035169864032 0.031617615696 
0.031614195648 0.024792422211 0.024798931567 0.021840719263 0.021838985751 0.019415253437 0.019417621776 0.017692116959 0.017692075236 
0.016793520615 0.016792748001 0.016791939872 0.016793520615 0.016791729784 0.016792100887 0.016787999758 0.016790850929 0.016787120902 
0.016790850929 0.016786883032 0.016790850929 0.016787100636 0.016790850929 0.016787100636 0.016790830663 0.016790626663 0.016790830663 
0.016791897317 0.016790830663 0.016791897317 0.016790847769 0.016791897317 0.016792107405 0.016792342516 0.016793493347 0.016797844368 
0.016792752187 0.017690657328 0.017692075236 0.019415337503 0.019417619898 0.021838358284 0.02183898304 0.024796161348 0.02479893275 
0.03161808715 0.031614212989 0.035172866606 0.035169878222 0.038657477461 0.038657457288 0.041993466361 0.04199616196 0.045125872015 
0.045123760914 0.048013478061 0.048012357281 0.050643487429 0.050642546848 0.053011082024 0.053010887673 0.055120781738 0.055119237715 
0.058597708651 0.058597163619 0.059991763999 0.059990619747 0.061171642188 0.06117522523 0.062151784001 0.062148277916 0.062937682538 
0.062152923345 0.061174253419 0.059995240059 0.058602138867 0.05512389859 0.053015361481 0.050647825803 0.048017823089 0.045129987473 
0.041994939331 0.038657729895 0.035172184708 0.031617646421 0.024796061878 0.021840012988 0.019417133033 0.017691222497 0.016791939872 
0.016791729784 0.016787999758 0.016787999758 0.016787999758 0.016787100636 0.016787100636 0.01678816729 0.01678816729 0.016790626663 
0.016791897317 0.016791897317 0.016791897317 0.016792342516 0.017694486194 0.019418725617 0.021840695071 0.024794694183 0.03161730685 
0.03516961529 0.038655764519 0.041992569141 0.045121899744 0.048014351807 0.050644196881 0.053011391667 0.055119859158 0.058602161596 
0.059998280786 0.06117507426 0.062152863011 0.062939385917 0.06215195164 0.061175659289 0.059995540433 0.058601718166 0.055123823059 
0.053015332087 0.050643875429 0.04801368062 0.045125476178 0.041994391856 0.038658362205 0.035170035176 0.031618356439 0.024800310479 
0.021838353972 0.019412753476 0.017687892848 0.016793292953 0.016787999758 0.016787999758 0.016787999758 0.016787999758 0.016787999758 
0.01678816729 0.01678816729 0.01678816729 0.01678816729 0.01678816729 0.016790626663 0.016791897317 0.016791897317 0.017688942907 
0.019414957001 0.021842576714 0.024798572649 0.031615105186 0.035169424592 0.038658986503 0.04199535421 0.04512510052 0.048013187253 
0.050643184982 0.053018479785 0.055126973995 0.058604498246 0.059998642132 0.061177754322 0.062155165565 0.062940339017 0.062154757489 
0.061177551219 0.059998144524 0.058604591841 0.055120711159 0.053011721761 0.050644413543 0.048014755677 0.045126653016 0.041997079537 
0.0386538064 0.035165717179 0.031620227347 0.02479592165 0.021837792623 0.019414297233 0.017687752588 0.016787999758 0.016787999758 
0.016787999758 0.016787999758 0.016787999758 0.01678816729 0.01678816729 0.01678816729 0.01678816729 0.01678816729 0.01678816729 
0.01678816729 0.016790626663 0.016792409923 0.017689003721 0.019414189949 0.021838119879 0.024801253619 0.031620489031 0.035171791666 
0.038659506554 0.041995608611 0.045132236078 0.048020622351 0.050650578609 0.053018038142 0.055126910371 0.058604498246 0.059998474903 
0.0611776703 0.062155031652 0.062940540212 0.062155988759 0.061171974735 0.059992401487 0.058604121456 0.055126327449 0.053011920477 
0.050644403294 0.048009167403 0.045121354461 0.041991697501 0.038656245284 0.035168445288 0.031615348686 0.024797199654 0.021840630076 
0.019418535589 0.017692235421 0.016793502015 0.016787999758 0.016787999758 0.016787999758 0.016787999758 0.016787999758 0.016787999758 
0.01678816729 0.01678816729 0.01678816729 0.01678816729 0.01678816729 0.01678816729 0.016790626663 0.017688586635 0.019413026707 
0.021835498587 0.024794957528 0.031612916724 0.035169589566 0.038657983927 0.041996601866 0.045125241643 0.048013299751 0.050643244668 
0.053010748368 0.055127200192 0.058605228578 0.059998650569 0.061178960606 0.062155172111 0.062940387522 0.062156392766 0.06117812624 
0.059998632028 0.058605291656 0.055127104041 0.05301748724 0.050650080176 0.048020008549 0.045131947033 0.041992026363 0.038656793826 
0.035171500028 0.031616215756 0.02479579645 0.021840636825 0.019417024032 0.017695077553 0.016796697479 0.016793502015 0.016787999758 
0.016787999758 0.016787999758 0.016787999758 0.016787999758 0.016786467656 0.016786467656 0.01678816729 0.01678816729 0.01678816729 
0.016790626663 0.016791784121 0.017693155694 0.019419652387 0.021843182465 0.024798044825 0.031613951536 0.035168642895 0.038655042886 
0.041992979023 0.04512304107 0.048021374413 0.050651275264 0.053018649992 0.055127677792 0.058605279728 0.059998850358 0.061178261139 
0.062156387349 0.062940677232 0.062155625562 0.06117872858 0.059996958767 0.05860342887 0.055126143657 0.053017644067 0.050650111758 
0.048020236858 0.045132164046 0.042003474204 0.038667040424 0.035177943975 0.031617971815 0.024789648888 0.021833087485 0.019410937369 
0.017689368252 0.016795537052 0.016789647369 0.016789647369 0.016789647369 0.016787999758 0.016787999758 0.016786467656 0.016789036387 
0.016789036387 0.016789036387 0.01678816729 0.016790626663 0.016791784121 0.016797408513 0.017692168912 0.019418016062 0.021838893736 
0.024795131673 0.03161826782 0.035172379018 0.038657755057 0.041993578323 0.045122246459 0.048010449703 0.050640574444 0.053007955381 
0.05511662471 0.058605005951 0.059998801439 0.061178768359 0.062155602438 0.062929306324 0.062144375456 0.061167238108 0.05999837844 
0.05860342887 0.055126176392 0.053017676182 0.050650128964 0.048020067781 0.045131911116 0.042002467472 0.038655256405 0.035166407737 
0.031617951721 0.024801193772 0.021840528077 0.019413920715 0.017686920199 0.016787440972 0.016787440972 0.016789647369 0.016787508062 
0.016788106141 0.01678645853 0.016789036387 0.016789036387 0.016789036387 0.016789036387 0.016790683998 0.016790683998 0.016790920062 
0.016794079185 0.017691177349 0.019410176658 0.021837815104 0.02479452367 0.031616845277 0.035167630363 0.038655725738 0.041991831856 
0.045123218139 0.048010857785 0.0506427853 0.053010353876 0.055118534491 0.058596446408 0.059989347226 0.061170014295 0.062147687174 
0.062941226949 0.06215492925 0.061177565733 0.059990668357 0.058605171448 0.055127007468 0.053017338917 0.050649987493 0.048008936787 
0.045120039859 0.041990950866 0.038654541349 0.035166959162 0.031612275496 0.024792450737 0.021837457548 0.019416622479 0.017691828112 
0.016790075073 0.016787440972 0.016787440972 0.016787553039 0.016787553039 0.016790683998 0.016790683998 0.016790683998 0.016790683998 
0.016790683998 0.016790683998 0.016790683998 0.016790683998 0.016789220428 0.017691157694 0.019418097701 0.021838974768 0.024797515923 
0.031614052686 0.035170528482 0.038657220202 0.041995254492 0.045124350397 0.048012743486 0.050644763698 0.053012379338 0.055119308719 
0.05860560559 0.059998792054 0.061177340298 0.06215538909 0.062938981376 0.062155636606 0.061178126929 0.059998431852 0.058605219221 
0.055126709699 0.053018613408 0.050650518357 0.048020354798 0.045132008381 0.041991480931 0.038654784784 0.035166959162 0.031612756238 
0.024797120343 0.021839933624 0.019412433715 0.017685474843 0.016791619975 0.016788972986 0.016787553039 0.016787553039 0.016790683998 
0.016790683998 0.016790683998 0.016790683998 0.016790683998 0.016790683998 0.016790683998 0.016790683998 0.016791789158 0.016791840627 
0.017690008554 0.019413381834 0.021839444497 0.024796012521 0.031614052686 0.035169778676 0.038659950953 0.041997553505 0.045126251671 
0.048014444533 0.050650796219 0.053018180522 0.055127027602 0.058604861061 0.059999125903 0.061178010574 0.062154302241 0.062939371311 
0.062155622636 0.061178078297 0.059997739978 0.058604613314 0.055126419584 0.053017671819 0.050650570723 0.048020675109 0.045132665877 
0.042003761582 0.038667312194 0.03517838365 0.03161286322 0.024792660952 0.021836969731 0.019417329412 0.017688133607 0.016788972986 
0.016789085052 0.016789085052 0.016791840627 0.016790683998 0.016790683998 0.016790683998 0.016790683998 0.016790683998 0.016790683998 
0.016790683998 0.016791789158 0.016791840627 0.016794273862 0.017693350217 0.019420963544 0.021840100201 0.024792530491 0.031612406479 
0.035171912968 0.0386597359 0.041997725569 0.045126872882 0.048014711271 0.050644875679 0.05301211357 0.055120659763 0.058598546702 
0.059998679398 0.061178468159 0.062155626661 0.062942731565 0.062157215934 0.061179754206 0.059997467628 0.058603819872 0.055126926457 
0.053017941179 0.050650341605 0.04802023546 0.045132319673 0.042002725346 0.038661190792 0.035170918246 0.031616940086 0.02479573125 
0.021835641157 0.019411117323 0.017690575122 0.016791273599 0.016789085052 0.016789085052 0.016787093529 0.016786335787 0.016789466746 
0.016789466746 0.016789466746 0.016789466746 0.016790683998 0.016791789158 0.016791840627 0.016792216011 0.016792904023 0.017687307017 
0.019415877464 0.021837647882 0.024791213208 0.031613386183 0.035171272833 0.038658608699 0.041993679637 0.045126711448 0.048014871147 
0.05064474222 0.053012519874 0.055120756573 0.058606004351 0.0599989248 0.061179551536 0.062157694086 0.062940530524 0.06215683238 
0.061179379718 0.060000623291 0.058605578523 0.055128317652 0.053019860633 0.050650513765 0.048013053308 0.045124800265 0.041995989243 
0.038657121648 0.035172674569 0.031616940086 0.024796384216 0.021838376851 0.019413140108 0.017692199401 0.016796027651 0.016789978674 
0.016787093529 0.016786335787 0.01678674726 0.01678674726 0.016789466746 0.016789466746 0.016789466746 0.016789466746 0.016791840627 
0.016792216011 0.016792904023 0.016796448314 0.017695541458 0.019412420635 0.021836596695 0.024793642304 0.031612469555 0.035168100873 
0.038655778622 0.041992012609 0.045123371685 0.048011533119 0.050652195575 0.053019512683 0.055128730008 0.058606169502 0.059999715298 
0.061179083389 0.062156728589 0.062941396709 0.062156133209 0.061179437116 0.060000648849 0.058601362549 0.055119048691 0.053010695974 
0.050642977074 0.048012364177 0.045124364227 0.041995736292 0.038659464372 0.035169672045 0.031616934042 0.024798208654 0.021839282218 
0.019415997168 0.017685837631 0.016789928726 0.016787093529 0.016786335787 0.016786335787 0.016786335787 0.016786335787 0.01678674726 
0.01678674726 0.016789466746 0.016789466746 0.016789466746 0.016789466746 0.01679540428 0.016795658286 0.017691205967 0.019414873481 
0.021839491731 0.024796882111 0.03161394036 0.035166839087 0.038656137464 0.041992709611 0.045129071618 0.048017278137 0.050647368254 
0.053014893588 0.055123016708 0.058601464543 0.059999981998 0.061179660274 0.06215644939 0.062936977724 0.062152204398 0.061170531303 
0.059990065411 0.058597707408 0.055119973395 0.053010933036 0.050643337881 0.048013511605 0.045125191866 0.041995485685 0.038659655662 
0.035169672045 0.031614322967 0.024789477249 0.021835411272 0.019412287073 0.017687656553 0.016786730857 0.016785973116 0.016786335787 
0.016786335787 0.016786335787 0.016786335787 0.016786335787 0.01678674726 0.01678743418 0.01678743418 0.016789466746 0.016789466746 
0.01678743418 0.016793371714 0.017690684644 0.019417098001 0.021833381585 0.024788554398 0.031613161297 0.035168901778 0.03865587881 
0.041995719943 0.045125001497 0.048012729469 0.050642779562 0.053010370424 0.055123621524 0.058601276927 0.059995677943 0.061174252323 
0.062152033105 0.062932801322 0.062148209074 0.061171068607 0.059990576877 0.058596309267 0.05511969133 0.053011069467 0.050643358318 
0.048012361526 0.045124723597 0.041993754826 0.038656619251 0.035169682097 0.031614357674 0.024794702217 0.021836565487 0.019411857888 
0.01769003731 0.016792389813 0.016786730857 0.016785973116 0.016786285839 0.016792326988 0.016792326988 0.016792326988 0.016792326988 
0.01678743418 0.016787458909 0.016787458909 0.016787458909 0.016787458909 0.016787458909 0.017685170754 0.019411741485 0.021837310844 
0.024790266827 0.03161269191 0.03517199772 0.038659869262 0.041995098581 0.045125088467 0.048013638616 0.050643538202 0.053011058233 
0.055119874603 0.058597047239 0.059991190777 0.061175386949 0.062147428643 0.062933321354 0.062147945613 0.061170489342 0.059991788448 
0.058596315703 0.055116260958 0.053008201828 0.050640936157 0.048010900791 0.045122865302 0.041994155207 0.038656834154 0.035170397551 
0.0316157192 0.02479549823 0.021838624668 0.019414284038 0.017687223807 0.016788623382 0.016786403329 0.01678685752 0.016792326988 
0.016795687705 0.016795687705 0.016795687705 0.016795687705 0.016792326988 0.016787458909 0.016787458909 0.016787458909 0.016787458909 
0.016794546221 0.017692669496 0.019413764605 0.021839208821 0.024795159754 0.031616857577 0.035165226604 0.038659044276 0.041995274884 
0.045124232455 0.048012925069 0.050645693406 0.053013247977 0.055120009043 0.05859760533 0.059990615577 0.061171180282 0.062149564782 
0.062935570367 0.062149803222 0.061173779935 0.059993267477 0.058600555053 0.055120473009 0.053011028375 0.050643478152 0.048013296827 
0.045122483982 0.041993173139 0.038657505567 0.035166613489 0.031612874827 0.024790582341 0.021833149349 0.019412113772 0.017686796403 
0.016786403329 0.016788521986 0.016794749196 0.016798109912 0.016796445446 0.016795687705 0.016795687705 0.016795687705 0.016795687705 
0.016792326988 0.016792326988 0.016787458909 0.016790522255 0.016791446449 0.01769266748 0.019420152997 0.021841634961 0.02479926457 
0.031619114095 0.035171470158 0.038658075028 0.041998989724 0.045127927902 0.048015432136 0.050645499 0.053012890545 0.055121510089 
0.0585999547 0.059993496622 0.061171988812 0.062149516539 0.062935316979 0.062152148583 0.061174164178 0.059994291966 0.058600226708 
0.055123163271 0.053013173116 0.050645879057 0.048016033843 0.045124227522 0.041994531104 0.038657137792 0.03516808434 0.031615320887 
0.024792437317 0.021833227975 0.019407705192 0.01768717806 0.016792497761 0.016794749196 0.016798109912 0.016795008809 0.016795008809 
0.016795008809 0.016795008809 0.016795008809 0.016795687705 0.016795687705 0.016795687705 0.016794749196 0.016789881116 0.016790522255 
0.017687225281 0.019412026408 0.021836322121 0.024796246728 0.031620188384 0.035174275462 0.038661196515 0.041997310682 0.04512733744 
0.04801556963 0.050645649496 0.053013116563 0.055121977136 0.058599927402 0.05999441747 0.061173840282 0.062150471393 0.062935556943 
0.062151019226 0.061174081978 0.059994171102 0.058600226708 0.055122610797 0.053014297503 0.050646532057 0.04801666539 0.045128588727 
0.041994283049 0.038658333483 0.035169390005 0.031615987981 0.024793613028 0.021837314864 0.019413455404 0.01768626289 0.01679727405 
0.016800634767 0.016795008809 0.016795008809 0.016794635287 0.016794635287 0.016794635287 0.016794635287 0.016794635287 0.016798109912 
0.016798109912 0.016798109912 0.016795390335 0.016797747793 0.017691116959 0.01941524908 0.021838183428 0.024792758098 0.031617291143 
0.035171041872 0.038659400657 0.041995085979 0.04512747852 0.048015618372 0.050645486426 0.053015270211 0.055124136235 0.058600741543 
0.059993524747 0.061174315083 0.062152532689 0.062936672442 0.062150822969 0.061173434719 0.059994568016 0.05860064554 0.055122703234 
0.053014331326 0.050640923828 0.048010977192 0.04512172638 0.041992517097 0.038653467792 0.035168536405 0.031614603886 0.024791427445 
0.021834321434 0.019410688876 0.017687438335 0.016806201869 0.016795008809 0.016795008809 0.016794635287 0.016794635287 0.016794635287 
0.016794635287 0.016794635287 0.016794635287 0.016794635287 0.016795008809 0.016798751051 0.016800634767 0.016801560367 0.017692822088 
0.019414181798 0.021840243838 0.024797131265 0.031615128202 0.035170512089 0.038656659439 0.041994303156 0.045128119669 0.048017964341 
0.050647837984 0.053015181621 0.055123872941 0.058602006136 0.059995571916 0.061174122947 0.062150602177 0.062938548071 0.062154573627 
0.061174959039 0.059994606748 0.058600332871 0.05512194658 0.053013539921 0.050646339098 0.048016320825 0.04511959153 0.041990253029 
0.038654603648 0.035164955247 0.031614025754 0.02479531921 0.021838291807 0.019414443887 0.017687186499 0.016793188906 0.016793188906 
0.016794635287 0.016794635287 0.016794635287 0.016794635287 0.016794635287 0.016794635287 0.016794635287 0.016794635287 0.016794635287 
0.016794635287 0.016801149564 0.016800900936 0.017690426537 0.019418559686 0.02183786285 0.024792596647 0.031613506885 0.035168149916 
0.038665176377 0.042000119651 0.045129719828 0.048017565513 0.050647783536 0.053015519055 0.05512553742 0.058603497145 0.059997991545 
0.061177279491 0.062154040418 0.062939396426 0.062154092539 0.061176649164 0.059997162416 0.058603999998 0.055126140188 0.053013226696 
0.050645775264 0.048015875065 0.045127504497 0.041989645528 0.038653522898 0.035166836152 0.031612980758 0.024794173493 0.021838373351 
0.019420153586 0.017695632265 0.016791541032 0.016788065707 0.016792815384 0.016794635287 0.016794635287 0.016794635287 0.016794635287 
0.016794635287 0.016794635287 0.016794635287 0.016794635287 0.016794635287 0.016792815384 0.016794609953 0.017692921083 0.019420045887 
0.021842654493 0.024793784978 0.031618368173 0.035170457506 0.038659951136 0.041995947499 0.045124738103 0.048019952609 0.050649656143 
0.053016995935 0.055125924109 0.058603497145 0.059997373383 0.061176667195 0.06215451341 0.062939098418 0.062154659243 0.0611775079 
0.059993274245 0.058600225946 0.055122275584 0.053013798503 0.050644559945 0.048014610205 0.045126329385 0.04199129977 0.0386550515 
0.035170067477 0.031615199163 0.024786864089 0.021827382239 0.019408071694 0.017689231332 0.016797430591 0.016788078759 0.01678807108 
0.016792821198 0.016794635287 0.016794635287 0.016794635287 0.016794635287 0.016794635287 0.016794635287 0.016794635287 0.016792815384 
0.016788095676 0.016788095676 0.017690119838 0.019411143199 0.021837011819 0.024797194798 0.031615192792 0.035170059515 0.038656236253 
0.041996627922 0.045125728104 0.048013737676 0.050643803208 0.05301187186 0.055120501516 0.058604104467 0.059997187903 0.061177262886 
0.062153564655 0.062939092923 0.06215355916 0.061177257363 0.059997182408 0.058604098972 0.055120498126 0.053011867518 0.050643803117 
0.048013737522 0.045125727461 0.041996628278 0.038656231777 0.03517005966 0.031615191347 0.024797184218 0.021836994996 0.019411122714 
0.017690083849 0.016788078759 0.016788078759 0.016792828876 0.016794635287 0.016794635287 0.016794635287 0.016794635287 0.016794635287 
0.016794635287 0.016794635287 0.016792821198 0.016788095676 0.016788095676 0.016797455187 0.0176892332 0.019408069772 0.021827398947 
0.024786881671 0.031615217461 0.035170084184 0.038655053283 0.041991299433 0.045126333369 0.04801461387 0.050644563628 0.053013810103 
0.05512228706 0.058600237689 0.059993286447 0.061177503308 0.062154653749 0.062939390049 0.062154504508 0.061176659953 0.059997367889 
0.058603491741 0.055125919624 0.053016990467 0.05064965045 0.048019947115 0.04512473872 0.041995943519 0.03865995238 0.035170462024 
0.031618364945 0.024793788508 0.021842687117 0.019420010235 0.017692907599 0.016794585357 0.016792828876 0.016794642965 0.016794642965 
0.016794642965 0.016794635287 0.016794635287 0.016794635287 0.016794635287 0.016794635287 0.016794635287 0.016792821198 0.016788079126 
0.016791542934 0.017695632309 0.019420161245 0.021838390058 0.02479418136 0.031613013555 0.035166835431 0.038653522952 0.041989645498 
0.045127516559 0.048015886801 0.050645787043 0.053013238415 0.055126136797 0.058603992594 0.059997156489 0.061176645461 0.062154087044 