# vtk DataFile Version 4.2
vtk output
ASCII
DATASET POLYDATA
POINTS 2401 float
35 0 0 34.7127 4.4757 0 34.6312 4.4652 1.27877 
34.9179 0 1.27877 34.3883 4.43388 2.53655 34.6729 0 2.53655 
33.9878 4.38224 3.75267 34.2692 0 3.75267 33.4364 4.31115 4.90718 
33.7132 0 4.90718 32.7431 4.22175 5.98111 33.0141 0 5.98111 
31.9193 4.11553 6.95683 32.1835 0 6.95683 30.9785 3.99423 7.81832 
31.2349 0 7.81832 29.9361 3.85983 8.55143 30.1839 0 8.55143 
28.8094 3.71455 9.14413 29.0478 0 9.14413 27.6167 3.56077 9.58668 
27.8453 0 9.58668 26.3776 3.40102 9.87182 26.596 0 9.87182 
25.1126 3.23792 9.99486 25.3205 0 9.99486 23.8424 3.07414 9.95379 
24.0398 0 9.95379 22.5878 2.91238 9.74928 22.7748 0 9.74928 
21.3695 2.75529 9.38468 21.5463 0 9.38468 20.2073 2.60545 8.86599 
20.3746 0 8.86599 19.1206 2.46532 8.20172 19.2788 0 8.20172 
18.1269 2.33721 7.40278 18.277 0 7.40278 17.2428 2.22321 6.48228 
17.3855 0 6.48228 16.4827 2.12521 5.45535 16.6191 0 5.45535 
15.859 2.0448 4.33884 15.9903 0 4.33884 15.3821 1.9833 3.15108 
15.5094 0 3.15108 15.0597 1.94174 1.91159 15.1844 0 1.91159 
14.8972 1.92078 0.640702 15.0205 0 0.640702 14.8972 1.92078 -0.640702 
15.0205 0 -0.640702 15.0597 1.94174 -1.91159 15.1844 0 -1.91159 
15.3821 1.9833 -3.15108 15.5094 0 -3.15108 15.859 2.0448 -4.33884 
15.9903 0 -4.33884 16.4827 2.12521 -5.45535 16.6191 0 -5.45535 
17.2428 2.22321 -6.48228 17.3855 0 -6.48228 18.1269 2.33721 -7.40278 
18.277 0 -7.40278 19.1206 2.46532 -8.20172 19.2788 0 -8.20172 
20.2073 2.60545 -8.86599 20.3746 0 -8.86599 21.3695 2.75529 -9.38468 
21.5463 0 -9.38468 22.5878 2.91238 -9.74928 22.7748 0 -9.74928 
23.8424 3.07414 -9.95379 24.0398 0 -9.95379 25.1126 3.23792 -9.99486 
25.3205 0 -9.99486 26.3776 3.40102 -9.87182 26.596 0 -9.87182 
27.6167 3.56077 -9.58668 27.8453 0 -9.58668 28.8094 3.71455 -9.14413 
29.0478 0 -9.14413 29.9361 3.85983 -8.55143 30.1839 0 -8.55143 
30.9785 3.99423 -7.81832 31.2349 0 -7.81832 31.9193 4.11553 -6.95683 
32.1835 0 -6.95683 32.7431 4.22175 -5.98111 33.0141 0 -5.98111 
33.4364 4.31115 -4.90718 33.7132 0 -4.90718 33.9878 4.38224 -3.75267 
34.2692 0 -3.75267 34.3883 4.43388 -2.53655 34.6729 0 -2.53655 
34.6312 4.4652 -1.27877 34.9179 0 -1.27877 33.8553 8.87791 0 
33.7759 8.85709 1.27877 33.539 8.79495 2.53655 33.1484 8.69253 3.75267 
32.6106 8.5515 4.90718 31.9344 8.37419 5.98111 31.1309 8.16349 6.95683 
30.2134 7.92287 7.81832 29.1968 7.65629 8.55143 28.0978 7.36812 9.14413 
26.9346 7.06308 9.58668 25.7262 6.7462 9.87182 24.4924 6.42267 9.99486 
23.2535 6.0978 9.95379 22.0299 5.77693 9.74928 20.8417 5.46533 9.38468 
19.7083 5.16812 8.86599 18.6483 4.89016 8.20172 17.6792 4.63604 7.40278 
16.8169 4.40992 6.48228 16.0756 4.21552 5.45535 15.4673 4.05602 4.33884 
15.0022 3.93404 3.15108 14.6878 3.85159 1.91159 14.5293 3.81003 0.640702 
14.5293 3.81003 -0.640702 14.6878 3.85159 -1.91159 15.0022 3.93404 -3.15108 
15.4673 4.05602 -4.33884 16.0756 4.21552 -5.45535 16.8169 4.40992 -6.48228 
17.6792 4.63604 -7.40278 18.6483 4.89016 -8.20172 19.7083 5.16812 -8.86599 
20.8417 5.46533 -9.38468 22.0299 5.77693 -9.74928 23.2535 6.0978 -9.95379 
24.4924 6.42267 -9.99486 25.7262 6.7462 -9.87182 26.9346 7.06308 -9.58668 
28.0978 7.36812 -9.14413 29.1968 7.65629 -8.55143 30.2134 7.92287 -7.81832 
31.1309 8.16349 -6.95683 31.9344 8.37419 -5.98111 32.6106 8.5515 -4.90718 
33.1484 8.69253 -3.75267 33.539 8.79495 -2.53655 33.7759 8.85709 -1.27877 
32.4421 13.1343 0 32.366 13.1035 1.27877 32.1389 13.0116 2.53655 
31.7647 12.8601 3.75267 31.2493 12.6514 4.90718 30.6014 12.3891 5.98111 
29.8314 12.0774 6.95683 28.9522 11.7214 7.81832 27.978 11.327 8.55143 
26.9249 10.9007 9.14413 25.8103 10.4494 9.58668 24.6523 9.9806 9.87182 
23.47 9.50195 9.99486 22.2829 9.02133 9.95379 21.1103 8.54663 9.74928 
19.9717 8.08563 9.38468 18.8856 7.64592 8.86599 17.8699 7.23471 8.20172 
16.9412 6.85875 7.40278 16.1149 6.52422 6.48228 15.4045 6.23661 5.45535 
14.8217 6.00064 4.33884 14.376 5.82018 3.15108 14.0747 5.69821 1.91159 
13.9228 5.63672 0.640702 13.9228 5.63672 -0.640702 14.0747 5.69821 -1.91159 
14.376 5.82018 -3.15108 14.8217 6.00064 -4.33884 15.4045 6.23661 -5.45535 
16.1149 6.52422 -6.48228 16.9412 6.85875 -7.40278 17.8699 7.23471 -8.20172 
18.8856 7.64592 -8.86599 19.9717 8.08563 -9.38468 21.1103 8.54663 -9.74928 
22.2829 9.02133 -9.95379 23.47 9.50195 -9.99486 24.6523 9.9806 -9.87182 
25.8103 10.4494 -9.58668 26.9249 10.9007 -9.14413 27.978 11.327 -8.55143 
28.9522 11.7214 -7.81832 29.8314 12.0774 -6.95683 30.6014 12.3891 -5.98111 
31.2493 12.6514 -4.90718 31.7647 12.8601 -3.75267 32.1389 13.0116 -2.53655 
32.366 13.1035 -1.27877 30.4962 17.1751 0 30.4246 17.1348 1.27877 
30.2112 17.0146 2.53655 29.8594 16.8165 3.75267 29.3749 16.5437 4.90718 
28.7658 16.2006 5.98111 28.0421 15.793 6.95683 27.2156 15.3275 7.81832 
26.2998 14.8118 8.55143 25.3099 14.2543 9.14413 24.2621 13.6642 9.58668 
23.1736 13.0511 9.87182 22.0622 12.4252 9.99486 20.9463 11.7967 9.95379 
19.8441 11.176 9.74928 18.7737 10.5732 9.38468 17.7528 9.99818 8.86599 
16.798 9.46046 8.20172 15.9251 8.96884 7.40278 15.1483 8.53139 6.48228 
14.4805 8.15529 5.45535 13.9327 7.84673 4.33884 13.5137 7.61076 3.15108 
13.2305 7.45126 1.91159 13.0877 7.37085 0.640702 13.0877 7.37085 -0.640702 
13.2305 7.45126 -1.91159 13.5137 7.61076 -3.15108 13.9327 7.84673 -4.33884 
14.4805 8.15529 -5.45535 15.1483 8.53139 -6.48228 15.9251 8.96884 -7.40278 
16.798 9.46046 -8.20172 17.7528 9.99818 -8.86599 18.7737 10.5732 -9.38468 
19.8441 11.176 -9.74928 20.9463 11.7967 -9.95379 22.0622 12.4252 -9.99486 
23.1736 13.0511 -9.87182 24.2621 13.6642 -9.58668 25.3099 14.2543 -9.14413 
26.2998 14.8118 -8.55143 27.2156 15.3275 -7.81832 28.0421 15.793 -6.95683 
28.7658 16.2006 -5.98111 29.3749 16.5437 -4.90718 29.8594 16.8165 -3.75267 
30.2112 17.0146 -2.53655 30.4246 17.1348 -1.27877 28.0495 20.9339 0 
27.9837 20.8848 1.27877 27.7874 20.7383 2.53655 27.4638 20.4967 3.75267 
27.0182 20.1642 4.90718 26.458 19.7461 5.98111 25.7923 19.2493 6.95683 
25.0321 18.6819 7.81832 24.1898 18.0533 8.55143 23.2793 17.3738 9.14413 
22.3156 16.6546 9.58668 21.3144 15.9073 9.87182 20.2922 15.1445 9.99486 
19.2658 14.3784 9.95379 18.252 13.6218 9.74928 17.2675 12.8871 9.38468 
16.3285 12.1863 8.86599 15.4503 11.5309 8.20172 14.6474 10.9317 7.40278 
13.933 10.3985 6.48228 13.3188 9.94007 5.45535 12.8149 9.56397 4.33884 
12.4295 9.27636 3.15108 12.169 9.08195 1.91159 12.0377 8.98395 0.640702 
12.0377 8.98395 -0.640702 12.169 9.08195 -1.91159 12.4295 9.27636 -3.15108 
12.8149 9.56397 -4.33884 13.3188 9.94007 -5.45535 13.933 10.3985 -6.48228 
14.6474 10.9317 -7.40278 15.4503 11.5309 -8.20172 16.3285 12.1863 -8.86599 
17.2675 12.8871 -9.38468 18.252 13.6218 -9.74928 19.2658 14.3784 -9.95379 
20.2922 15.1445 -9.99486 21.3144 15.9073 -9.87182 22.3156 16.6546 -9.58668 
23.2793 17.3738 -9.14413 24.1898 18.0533 -8.55143 25.0321 18.6819 -7.81832 
25.7923 19.2493 -6.95683 26.458 19.7461 -5.98111 27.0182 20.1642 -4.90718 
27.4638 20.4967 -3.75267 27.7874 20.7383 -2.53655 27.9837 20.8848 -1.27877 
25.1422 24.3489 0 25.0833 24.2918 1.27877 24.9073 24.1214 2.53655 
24.6172 23.8405 3.75267 24.2178 23.4537 4.90718 23.7157 22.9674 5.98111 
23.119 22.3895 6.95683 22.4376 21.7296 7.81832 21.6826 20.9984 8.55143 
20.8665 20.2081 9.14413 20.0026 19.3715 9.58668 19.1052 18.5024 9.87182 
18.189 17.615 9.99486 17.269 16.724 9.95379 16.3603 15.844 9.74928 
15.4778 14.9894 9.38468 14.6361 14.1743 8.86599 13.8489 13.4119 8.20172 
13.1293 12.715 7.40278 12.4889 12.0948 6.48228 11.9383 11.5616 5.45535 
11.4866 11.1242 4.33884 11.1412 10.7896 3.15108 10.9077 10.5635 1.91159 
10.79 10.4495 0.640702 10.79 10.4495 -0.640702 10.9077 10.5635 -1.91159 
11.1412 10.7896 -3.15108 11.4866 11.1242 -4.33884 11.9383 11.5616 -5.45535 
12.4889 12.0948 -6.48228 13.1293 12.715 -7.40278 13.8489 13.4119 -8.20172 
14.6361 14.1743 -8.86599 15.4778 14.9894 -9.38468 16.3603 15.844 -9.74928 
17.269 16.724 -9.95379 18.189 17.615 -9.99486 19.1052 18.5024 -9.87182 
20.0026 19.3715 -9.58668 20.8665 20.2081 -9.14413 21.6826 20.9984 -8.55143 
22.4376 21.7296 -7.81832 23.119 22.3895 -6.95683 23.7157 22.9674 -5.98111 
24.2178 23.4537 -4.90718 24.6172 23.8405 -3.75267 24.9073 24.1214 -2.53655 
25.0833 24.2918 -1.27877 21.8221 27.3641 0 21.771 27.2999 1.27877 
21.6182 27.1084 2.53655 21.3665 26.7927 3.75267 21.0198 26.358 4.90718 
20.584 25.8115 5.98111 20.0661 25.1621 6.95683 19.4746 24.4204 7.81832 
18.8194 23.5987 8.55143 18.111 22.7105 9.14413 17.3612 21.7703 9.58668 
16.5823 20.7936 9.87182 15.7871 19.7964 9.99486 14.9886 18.795 9.95379 
14.1999 17.806 9.74928 13.4339 16.8456 9.38468 12.7034 15.9295 8.86599 
12.0202 15.0728 8.20172 11.3955 14.2895 7.40278 10.8397 13.5926 6.48228 
10.3619 12.9934 5.45535 9.9698 12.5017 4.33884 9.66998 12.1258 3.15108 
9.46732 11.8716 1.91159 9.36516 11.7435 0.640702 9.36516 11.7435 -0.640702 
9.46732 11.8716 -1.91159 9.66998 12.1258 -3.15108 9.9698 12.5017 -4.33884 
10.3619 12.9934 -5.45535 10.8397 13.5926 -6.48228 11.3955 14.2895 -7.40278 
12.0202 15.0728 -8.20172 12.7034 15.9295 -8.86599 13.4339 16.8456 -9.38468 
14.1999 17.806 -9.74928 14.9886 18.795 -9.95379 15.7871 19.7964 -9.99486 
16.5823 20.7936 -9.87182 17.3612 21.7703 -9.58668 18.111 22.7105 -9.14413 
18.8194 23.5987 -8.55143 19.4746 24.4204 -7.81832 20.0661 25.1621 -6.95683 
20.584 25.8115 -5.98111 21.0198 26.358 -4.90718 21.3665 26.7927 -3.75267 
21.6182 27.1084 -2.53655 21.771 27.2999 -1.27877 18.1437 29.93 0 
18.1012 29.8598 1.27877 17.9742 29.6503 2.53655 17.7649 29.305 3.75267 
17.4767 28.8296 4.90718 17.1143 28.2318 5.98111 16.6837 27.5215 6.95683 
16.1919 26.7103 7.81832 15.6471 25.8116 8.55143 15.0582 24.84 9.14413 
14.4348 23.8117 9.58668 13.7872 22.7434 9.87182 13.126 21.6527 9.99486 
12.462 20.5574 9.95379 11.8063 19.4757 9.74928 11.1695 18.4252 9.38468 
10.562 17.4232 8.86599 9.994 16.4862 8.20172 9.47466 15.6294 7.40278 
9.01254 14.8671 6.48228 8.61523 14.2117 5.45535 8.28926 13.674 4.33884 
8.03998 13.2628 3.15108 7.87148 12.9848 1.91159 7.78654 12.8447 0.640702 
[...]
POINT_DATA 2401
SCALARS scalars double
LOOKUP_TABLE default
44.657490906 125.97573369 136.04393566 55.934290861 143.974395 65.562823564 149.33844875 74.055604431 152.33885027 
81.219575366 152.69030046 87.222190565 150.44768387 91.68018806 145.96013863 94.922671539 139.1726211 96.754527712 
130.44991999 97.400286938 119.79749327 96.611963777 107.33454948 94.427716927 93.272173069 90.901827346 77.868512114 
86.114975942 61.414405878 80.162064761 44.147002737 73.123902888 26.410734657 65.073353829 8.4051664868 56.269279473 
-9.4979672152 46.659224953 -27.315550605 36.001960457 -44.937255036 24.830023596 -61.685499538 13.092466604 -77.437559669 
1.4197211635 -91.553293136 -10.218929304 -104.03249476 -21.479528144 -114.88801197 -32.598916279 -123.90916177 -43.052788288 
-131.15197577 -53.335793183 -136.68338344 -63.003652895 -140.19569528 -71.91827584 -141.4454922 -79.413529192 -139.92955479 
-85.067810489 -135.67176004 -88.895833906 -128.71487553 -90.846291718 -119.49299495 -91.209272906 -108.23417537 -89.984929242 
-95.219040995 -87.223768891 -80.506465153 -82.81917192 -64.179688386 -76.674042841 -46.30920321 -68.690319758 -27.22721471 
-59.155936437 -7.4259992274 -48.494535218 12.641154237 -36.922758304 32.320508979 -24.988393814 51.279897186 -12.911084648 
69.355771135 -0.46056427998 86.699551171 12.255473285 102.66526725 25.279216527 117.22281172 38.355054461 208.08267344 
217.40040386 223.30645359 225.23870667 223.75893025 218.29692838 209.35712117 196.90848033 181.58334454 163.50045298 
143.04792305 120.38678056 95.928585343 70.104027966 43.346879244 16.127089367 -11.135343246 -38.021714209 -64.100988234 
-89.1521098 -112.89986661 -134.71272994 -154.25564281 -171.01393884 -184.78489007 -195.63660804 -203.37319726 -208.1262404 
-209.79409695 -208.307485 -203.34192012 -194.59576256 -182.16361159 -166.32831635 -147.52591812 -126.25237913 -102.8845833 
-77.696172824 -50.919040879 -22.78338635 6.166479089 35.271198402 63.912010877 91.403564338 117.23694182 141.26055256 
163.10098903 182.33596448 198.68558311 287.35999973 295.80102477 299.92883382 298.54053399 292.75524772 281.59939054 
266.12645357 246.1686684 222.52500074 195.4760305 165.55676914 133.05812658 98.568839246 62.670790566 25.960735455 
-10.935414933 -47.398602693 -82.872018149 -116.86699631 -148.94594949 -178.66524467 -205.413617 -228.64790219 -247.90441396 
-262.94260096 -273.74073878 -280.17646161 -282.37217676 -280.27484852 -273.89236 -262.85865102 -247.15727189 -226.90873084 
-202.52595194 -174.59717915 -143.75953255 -110.53196658 -75.346603265 -38.584705258 -0.66972250264 37.687977952 75.709273439 
112.60311548 147.55045847 179.92462606 209.67508428 236.12400255 258.73057597 277.15817713 361.7070954 369.43506792 
371.97462943 367.48934946 357.66011729 341.23187545 319.56467887 292.50622304 261.02618929 225.57974313 186.73228681 
145.01163985 101.10441962 55.729406801 9.6835381415 -36.281529843 -81.365436293 -124.93316796 -166.26301388 -204.93780351 
-240.25049372 -271.60524168 -298.3620656 -320.07162926 -336.33477185 -347.21642492 -352.50607257 -352.38703757 -346.88099023 
-335.90394441 -319.29408525 -297.05528504 -269.39200602 -236.8980245 -200.25412299 -160.24678679 -117.54966585 -72.769163615 
-26.4613525 20.760094094 68.078980653 114.60339595 159.3291302 201.31346112 239.88895187 274.94200036 305.36908219 
330.69859988 350.84640799 430.31930762 437.31199894 438.30866966 431.13320077 417.59493234 396.38739529 368.9998743 
335.45368985 296.76930571 253.56957313 206.47418641 156.18625287 103.52065316 49.307343441 -5.4527036017 -59.88672466 
-113.0228377 -164.17503938 -212.42553083 -257.26165047 -297.83256434 -333.51744322 -363.5640634 -387.48613786 -404.88018737 
-415.74622018 -419.90454809 -417.57018439 -408.77218614 -393.49824839 -371.60074046 -343.20005585 -308.67862375 -268.65748152 
-223.97392198 -175.55373614 -124.20602098 -70.677141338 -15.651822303 40.103450179 95.634864227 149.87718817 201.80390616 
250.24185837 294.43239964 334.38311381 368.72943301 396.87849076 418.72007042 492.03558046 498.53971391 498.14074333 
488.56566168 471.70993983 446.29540931 413.77034765 374.43360201 329.22519385 279.01635003 224.49037692 166.47646768 
105.90292231 43.719101635 -18.913072799 -81.01039372 -141.40858922 -199.3553046 -253.90037012 -304.26735683 -349.63597617 
-389.2700227 -422.36537343 -448.36141999 -466.82639909 -477.64808159 -480.82075108 -476.52733387 -464.75835311 -445.56260935 
-418.92384662 -384.96887502 -344.23185761 -297.39212031 -245.41402313 -189.31357882 -130.05310353 -68.517965671 -5.5333949079 
57.971620008 120.93956745 182.21405061 240.6514577 294.94415865 344.24324427 388.63295674 426.36957022 456.85370264 
480.11769759 546.27214578 552.38507106 550.79598636 539.07808165 519.19906998 490.12205256 453.0466243 408.57813881 
357.68172735 301.32792248 240.29317188 175.50542823 107.97711066 38.765509626 -30.859391854 -99.732768899 -166.65095578 
-230.61609847 -290.72324071 -346.03180557 -395.66964434 -438.75873675 -474.52606421 -502.26674051 -521.62787735 -532.37006919 
-534.56517049 -528.39810208 -513.92671986 -491.26386394 -460.44285939 -421.60046724 -375.38188181 -322.5474749 -264.14954608 
-201.3485092 -135.21256793 -66.732705602 3.1389421761 73.418643389 142.89464123 210.33401247 274.43159816 333.83682601 
387.56117504 435.77704769 476.62308766 509.36670565 534.0775756 592.17732178 597.89760928 595.2165075 581.79884676 
559.38588475 527.18901902 486.33979196 437.56468707 381.89119508 320.33240009 253.80104574 183.2607988 109.84915853 
34.710884196 -40.783078786 -115.32673011 -187.68391086 -256.69970977 -321.41658619 -380.84801852 -434.13250616 -480.18613202 
-518.23283091 -547.5022881 -567.57477661 -578.29019973 -579.69226208 -572.00622983 -555.34216413 -529.76944395 -495.37553268 
-452.46713273 -401.59789372 -343.73234912 -279.95512569 -211.49656755 -139.53376543 -65.158360014 10.566271985 86.557487153 
161.51196037 234.14573503 303.07227849 366.77201876 424.31944833 475.8590759 519.33363232 553.82111846 579.65030796 
628.81295164 634.29422157 630.71781744 615.92321909 591.42634711 556.6756911 512.78782038 460.56617253 401.06179963 
335.37135351 264.46864862 189.37212583 111.27920249 31.418476678 -48.764097087 -127.84230367 -204.53798583 -277.62522315 
-346.05531593 -408.77828441 -464.87101401 -513.32595134 -553.18110072 -583.70807624 -604.37115973 -615.04746014 -615.81541814 
-606.91038431 -588.44093024 -560.51609847 -523.29543101 -477.13795543 -422.58282103 -360.68171446 -292.59438399 -219.61841413 
-143.00462324 -63.941419523 16.433235486 96.973200293 176.32702471 253.11429211 325.94214876 393.1097021 453.59937465 
507.65448216 553.2387235 589.23948141 615.98404084 655.68387657 660.98962719 656.71659804 640.91665484 614.93125329 
578.32360121 532.16210729 477.38532958 415.10229837 346.34581796 272.25163885 193.82143382 112.33233673 29.078502052 
-54.465987876 -136.78732293 -216.57188493 -292.56207576 -363.66172546 -428.78967759 -486.96870296 -537.16909778 -578.33170926 
-609.79342107 -630.90768478 -641.56710176 -641.87207944 -632.06800003 -612.35067074 -582.77868755 -543.58007438 -495.08849153 
-437.91429656 -373.10902045 -301.91265657 -225.64635575 -145.64800688 -63.153581818 20.65438762 104.55363958 187.1298202 
266.96718016 342.62391013 412.30389005 475.00594464 530.99999427 578.13045208 615.2132308 642.6232524 672.16601219 
677.46263295 672.70914472 656.20515784 629.20498152 591.39036091 543.84449312 487.49270372 423.52266169 352.94093801 
276.92528319 196.5135359 112.97664874 27.667587374 -57.911123121 -142.21737499 -223.89272319 -301.64587062 -374.39227143 
-441.03993309 -500.51861735 -551.81381624 -593.8362881 -625.84005343 -647.266292 -657.95572325 -658.00361495 -647.67680625 
-627.18031167 -596.62561331 -556.23161438 -506.2793818 -447.48771511 -380.86326439 -307.71796996 -229.4070633 -147.30814432 
-62.679541388 23.239605133 109.19567523 193.76364177 275.50786856 352.91642978 424.18954728 488.2099842 545.31379474 
593.40374737 631.17161067 658.92312396 678.03910364 683.28595271 678.32338983 661.5984338 634.22062701 595.972755 
547.93923145 491.03320237 426.48392136 355.27059744 278.60579053 197.50556836 113.2798807 27.277333606 -58.998912096 
-143.99107908 -226.32207182 -304.70629328 -378.01072467 -445.19045576 -505.16043555 -556.86723573 -599.19717032 -631.42000806 
-652.97317017 -663.68724599 -663.69502523 -653.16925216 -632.42042737 -601.54611478 -560.75707519 -510.35336639 -451.00131064 
-383.74102294 -309.91277507 -230.87963095 -148.02800143 -62.64404821 24.040573306 110.76057022 196.05662854 278.46844441 
356.49726289 428.27807407 492.67615951 550.17173234 598.68913172 636.73689169 664.60793461 673.00599847 678.40708336 
673.50711003 656.97070134 629.78424738 591.83838269 544.24947301 487.84044187 423.8938751 353.30502252 277.30106428 
196.85776443 113.28738792 27.932511349 -57.704678021 -142.10314008 -223.86349447 -301.72841708 -374.57074795 -441.3783934 
-501.05010013 -552.52485949 -594.71602744 -626.79440632 -648.30252764 -659.02870019 -659.1320653 -648.78454985 -628.30042885 
-597.72093965 -557.30123318 -507.34228582 -448.47788784 -381.7259325 -308.40461495 -229.93823873 -147.66104195 -62.866376395 
23.206331942 109.29369838 193.97497132 275.82081885 353.33117701 424.61457188 488.52847064 545.58667528 593.85202944 
631.78553777 659.53503825 657.30453965 662.93007841 658.37319668 642.52118135 616.17878516 579.32776354 533.10861996 
478.20746675 415.95078155 347.17070418 273.07578083 194.59870069 113.0082511 29.627673763 -54.06737788 -136.59985284 
-216.59450969 -292.81080159 -364.15990165 -429.64012893 -488.16043167 -538.67473576 -580.15707359 -611.76117643 -633.06663724 
-643.77759457 -644.14432117 -634.29216178 -614.53460459 -584.94824722 -545.65672361 -497.05351554 -439.74594827 -374.6767079 
-303.16583226 -226.58282541 -146.26267536 -63.466270149 20.623707041 104.76971317 187.54268409 267.59710825 343.45932867 
413.21490533 475.72390297 531.5988989 579.02280663 616.44583352 643.85441668 631.36805361 637.26245587 633.31161257 
618.5087588 593.5527519 558.49616501 514.49367161 462.13346133 402.70091774 336.90603211 265.96584686 190.72024763 
112.42394131 32.347731584 -48.097313311 -127.47568952 -204.46245473 -277.90859122 -346.71153514 -409.92965094 -466.52554674 
-515.44717017 -555.72455091 -586.48362847 -607.37278206 -618.14336601 -618.94943859 -609.96851557 -591.43885214 -563.46161804 
-526.14680005 -479.80862624 -425.04614912 -362.81857162 -294.31018273 -220.8892988 -143.83087299 -64.336284816 16.443955035 
97.326673769 176.94555988 253.99224865 327.07698782 394.3236734 454.61316726 508.62681969 554.67047126 591.14155182 
617.95681438 595.50276406 601.80007874 598.70815893 585.39910771 562.46242034 529.88579013 488.8991057 439.94821929 
384.3526479 322.64361434 255.9936921 185.23076447 111.49042335 35.980671172 -39.934844997 -114.9257911 -187.73516642 
-257.26200049 -322.50132962 -382.53322613 -436.39084793 -483.05018974 -521.60855781 -551.26296184 -571.59517237 -582.39757576 
-583.84286476 -576.05016481 -559.21899547 -533.48778185 -498.91262427 -455.76893625 -404.57380987 -346.26181393 -281.97306143 
-212.97742019 -140.43928701 -65.518672888 10.686016106 87.081794113 162.38755387 235.32920556 304.62523803 368.47390122 
425.74631835 477.12099468 521.16516345 556.25010901 582.27895341 550.37202381 557.13994896 555.12329035 543.59924282 
523.11562234 493.68598378 456.51184816 411.85237076 361.07036873 304.51887768 243.29048791 178.1578735 110.16729961 
40.461858731 -29.695775442 -99.106536078 -166.57980874 -231.11262722 -291.85161747 -347.79922849 -398.20568837 -441.98973795 
-478.36654063 -506.60319975 -526.20880771 -537.10489517 -539.36620732 -533.12760538 -518.50517289 -495.59512371 -464.48352856 
-425.4067692 -378.79222437 -325.4837438 -266.51669698 -203.0629422 -136.24171422 -67.060955031 3.4360437176 74.230024207 
144.11082235 211.92610842 276.4965942 335.99582797 389.51138752 437.7182739 479.25426921 512.62973277 537.49789421 
496.96410466 504.07939684 503.32928036 493.85347111 476.26867399 450.5443694 417.85942701 378.29840758 333.16004615 
282.74432344 227.97876675 169.56082426 108.44860936 45.670501225 -17.632527472 -80.363837538 -141.49108907 -200.07131878 
-255.39973543 -306.54270849 -352.76640454 -393.12220161 -426.91981653 -453.35876983 -472.16021521 -483.12255028 -486.34133781 
-482.02641901 -470.04749009 -450.60465988 -423.63375777 -389.34821924 -348.17064447 -300.77152996 -248.14838717 -191.30845152 
-131.25654404 -68.913168017 -5.206817318 58.921525068 122.3835807 184.10631573 243.04373871 297.54528704 346.614683 
391.01800783 429.55374962 460.88612755 484.56290238 435.8095761 443.36481258 443.96536521 436.80913306 422.5855049 
401.07312895 373.50618044 339.82237167 301.12291011 257.68327867 210.3250618 159.61403849 106.38163706 51.543727586 
-3.8979631966 -59.012531136 -112.89964096 -164.72745439 -213.87800623 -259.48925059 -300.92408535 -337.35460806 -368.15913885 
-392.5472121 -410.38471686 -421.50500035 -425.87221162 -423.65307755 -414.77214901 -399.24816111 -377.03701703 -348.22979497 
-313.21633023 -272.63548629 -227.2416373 -177.93080707 -125.61747233 -71.080830823 -15.139589404 41.379611539 97.48936886 
152.26496791 204.7518711 253.40933585 297.38998049 337.55176157 372.68836124 401.51895803 423.6463128 367.48126336 
375.65928634 377.88312902 373.3665998 362.88415717 346.13661052 324.16981255 297.02559521 265.54206175 229.88152652 
190.74003071 148.5330019 104.03945146 57.987489168 11.226326404 -35.461747639 -81.331776376 -125.69349895 -167.99428945 
-207.51789182 -243.69538933 -275.79239745 -303.28239596 -325.49769083 -342.26203762 -353.45441226 -359.04667233 -359.18891771 
-353.61860764 -342.34296035 -325.39024845 -302.66186427 -274.50199627 -241.39513682 -203.99981832 -163.07898765 -119.33864528 
-73.463012718 -26.152201241 21.888584712 69.843171743 116.87701194 162.15705712 204.38493946 242.74731732 278.02548029 
309.31321381 335.35938276 355.76486038 293.40663944 302.14580283 306.13252431 304.50631287 298.1579663 286.65497611 
270.88603465 250.81808058 227.12774826 199.88193789 169.60719631 136.61416457 101.54590046 64.983652536 27.569882469 
-10.023614576 -47.279163331 -83.600456246 -118.55274935 -151.54379138 -182.05264968 -209.49267483 -233.36454902 -253.20011969 
-268.75955779 -280.04420144 -286.96325471 -289.52334015 -287.4987194 -280.84946927 -269.42926885 -253.26941484 -232.47212001 
-207.47340042 -178.7829357 -146.91728135 -112.49368903 -76.017479387 -38.04985658 0.80515478662 39.88622613 78.514069945 
116.06277727 151.23858991 183.43566528 213.56798648 240.76361606 263.83102694 282.25747346 214.92691545 224.38531712 
230.25081297 231.70892546 229.77185122 223.76520956 214.61235562 201.99196167 186.53589004 168.19749775 147.309519 
124.08090533 98.978419682 72.456592834 44.941566808 16.94046129 -11.195966836 -39.064636418 -66.238749153 -92.297482943 
-116.84023016 -139.36430695 -159.44106986 -176.69678416 -191.01638589 -202.33291488 -210.52336881 -215.61964993 -217.3659324 
-215.56898845 -210.08804661 -200.84639991 -187.90778508 -171.4998097 -151.92735724 -129.69327561 -105.15202581 -78.664012699 
-50.630874845 -21.534020354 8.1247582272 37.818545193 67.090356538 94.878991361 120.70995773 145.33602312 168.07381756 
188.01234273 204.62455964 133.78086542 143.81500378 151.65019303 156.3103253 158.93731212 158.56302447 156.21405964 
151.38294683 144.47387847 135.35049895 124.19939379 111.11393729 96.382439862 80.292471173 63.077101175 45.045789913 
26.385331034 7.360679401 -11.716095245 -30.594215128 -48.855592064 -66.223448874 -82.273220274 -96.886526077 -109.91918316 
-121.26312475 -130.93451109 -138.64264915 -144.33210093 -147.61269166 -148.33446538 -146.26016779 -141.42804901 -133.92635671 
-123.94416065 -111.7238621 -97.450330409 -81.350234165 -63.659159025 -44.692327361 -24.831494993 -4.388378963 16.292784463 
36.377540335 55.479217597 74.43036179 92.712263325 109.40201532 123.91909339 50.82074907 61.683120613 71.449664155 
79.409878546 86.601216424 92.045197935 96.652606436 99.681845986 101.51352642 101.80170015 100.58654317 97.881789707 
93.761286728 88.33800282 81.668946269 73.862733231 64.908698858 54.999074869 44.220440453 32.782129918 20.943042967 
8.9032008941 -3.0712168846 -15.003891623 -26.618471643 -38.090443851 -49.25352537 -59.780199701 -69.570517684 -78.058460329 
-85.130527472 -90.416752037 -93.90717557 -95.510788549 -95.288958215 -93.284039771 -89.521285294 -84.040938434 -76.906685098 
-68.27060059 -58.388054983 -47.357293777 -35.470817469 -23.187995011 -10.762679685 2.4289283001 16.039412024 29.360996804 
41.906170839 -32.131389927 -20.665005973 -9.0476743443 2.2054315755 13.940083854 25.162461165 36.755450341 47.671259012 
58.251138472 68.003625897 76.803024624 84.529088133 91.08752678 96.415728507 100.35583351 102.85956867 103.70553311 
102.9652875 100.58809323 96.675222645 91.311166325 84.701377499 76.793965742 67.620760894 57.318352937 45.75232354 
33.130236272 19.729004249 5.9068705016 -7.9732114302 -21.451275773 -34.260469068 -46.128702248 -56.839038119 -66.437489623 
-74.736452015 -81.545119906 -86.706017749 -90.159042384 -91.887432786 -91.978124661 -90.40015768 -87.201637152 -82.854873001 
-77.301285484 -69.828416154 -60.779192954 -50.78499682 -40.44448726 -114.1052424 -101.99212992 -88.546854642 -74.053456425 
-57.768520235 -40.914445564 -22.528242114 -3.843746269 15.37978103 34.458240543 53.141668443 71.225395683 88.366176757 
104.34566619 118.80911485 131.4899209 142.0546106 150.41405791 156.32616645 159.8842208 160.87851713 159.55951521 
155.7480063 149.35649058 140.34444347 128.63675406 114.57366582 98.338966775 80.417941401 61.324516855 41.549030645 
21.353242964 1.2256515251 -18.654347322 -37.974471074 -56.422296452 -73.66148453 -89.343709405 -103.24277236 -115.19370502 
-125.14168811 -132.9194905 -138.44154748 -141.88739362 -142.95053507 -141.19319994 -136.77039943 -130.15558027 -121.82002952 
-193.91482037 -181.19361521 -165.92551874 -148.22969957 -127.56735088 -105.16951233 -80.13894057 -53.944049399 -26.356834347 
1.7644388043 30.095344505 58.221499165 85.632710106 111.95033004 136.62916114 159.2161559 179.25058364 196.4419661 
210.43003887 221.18748828 228.38650343 232.2011156 232.22880995 228.46878229 220.75056587 208.94637589 193.46344568 
174.55705864 152.79887575 128.58598465 102.64610799 75.361954281 47.177801517 18.477225521 -10.288667843 -38.622960108 
-66.007937858 -91.946283162 -116.0192359 -137.93421263 -157.48351755 -174.37038241 -188.28811858 -199.30212577 -206.99513799 
-210.78733958 -210.73100804 -207.34921496 -201.07015631 -270.12370068 -256.87376148 -239.86416639 -219.12715486 -194.25180085 
-166.52540512 -135.19690741 -101.79940804 -66.193391543 -29.429299229 8.0797922616 45.759997966 82.960089637 119.10509143 
153.5037117 185.50818073 214.52075162 240.12882882 261.85051477 279.46246521 292.63814692 301.27068667 305.00050608 
303.71295329 297.13944147 285.37086854 268.54636643 247.1140394 221.62698299 192.64259154 160.92668524 126.81656817 
90.99145401 53.901113403 16.127311153 -21.640844452 -58.696447178 -94.418460106 -128.26815243 -159.73676215 -188.49940548 
-214.08217589 -236.10812645 -254.43010294 -268.29489901 -277.3610252 -281.67286567 -281.35535183 -276.78904038 -341.75200884 
-327.94068116 -309.25929329 -285.58174385 -256.6962928 -223.91658873 -186.59605969 -146.48318175 -103.40780286 -58.56115383 
-12.498975219 34.105616393 80.425828886 125.73428498 169.17381553 209.93277605 247.36098677 280.78542215 309.6663894 
333.73137547 352.45125459 365.58925983 372.81299524 373.84488109 368.41043378 356.64543501 338.66239986 314.89680157 
285.99406012 252.6212235 215.42124499 175.00465055 132.017303 87.089879653 40.927424418 -5.6675530712 -51.810232476 
-96.747035312 -139.75611071 -180.17619556 -217.57642511 -251.37650195 -281.02995089 -306.17263842 -325.98388532 -340.03790656 
-348.33893688 -350.89781613 -348.14906001 -407.63260879 -393.12818971 -372.83880755 -346.36059984 -313.82024963 -276.38165996 