# vtk DataFile Version 4.2
vtk output
ASCII
DATASET POLYDATA
POINTS 1806 float
11 8 2.85024 11 7.74155 3 10.3185 8 3 
12 8 2.78027 12 7.62079 3 13 8 2.85024 
13 7.74155 3 13.6815 8 3 9 9 2.92344 
9 8.83716 3 8.83716 9 3 10 9 2.58828 
10 8.12431 3 11 9 2.42054 12 9 2.36948 
13 9 2.42054 14 8.12431 3 14 9 2.58828 
15 9 2.92344 15 8.83716 3 15.1628 9 3 
9 10 2.58828 8.12431 10 3 10 10 2.32066 
11 10 2.18672 12 10 2.14594 13 10 2.18672 
14 10 2.32066 15 10 2.58828 15.8757 10 3 
8 11 2.85024 8 10.3185 3 7.74155 11 3 
9 11 2.42054 10 11 2.18672 11 11 2.06969 
12 11 2.03406 13 11 2.06969 14 11 2.18672 
15 11 2.42054 16 10.3185 3 16 11 2.85024 
16.2584 11 3 8 12 2.78027 7.62079 12 3 
9 12 2.36948 10 12 2.14594 11 12 2.03406 
12 12 2 13 12 2.03406 14 12 2.14594 
15 12 2.36948 16 12 2.78027 16.3792 12 3 
8 13 2.85024 7.74155 13 3 9 13 2.42054 
10 13 2.18672 11 13 2.06969 12 13 2.03406 
13 13 2.06969 14 13 2.18672 15 13 2.42054 
16 13 2.85024 16.2584 13 3 8 13.6815 3 
8.12431 14 3 9 14 2.58828 10 14 2.32066 
11 14 2.18672 12 14 2.14594 13 14 2.18672 
14 14 2.32066 15 14 2.58828 15.8757 14 3 
16 13.6815 3 9 15 2.92344 8.83716 15 3 
10 15 2.58828 11 15 2.42054 12 15 2.36948 
13 15 2.42054 14 15 2.58828 15 15 2.92344 
15.1628 15 3 9 15.1628 3 10 15.8757 3 
10.3185 16 3 11 16 2.85024 12 16 2.78027 
13 16 2.85024 13.6815 16 3 14 15.8757 3 
15 15.1628 3 11 16.2584 3 12 16.3792 3 
13 16.2584 3 9 7 3.83902 9 6.77955 4 
8.68148 7 4 10 7 3.49462 10 6.30791 4 
11 7 3.32225 11 6.07186 4 12 7 3.26977 
12 6 4 13 7 3.32225 13 6.07186 4 
14 7 3.49462 14 6.30791 4 15 7 3.83902 
15 6.77955 4 15.3185 7 4 8 8 3.6919 
8 7.50535 4 7.50535 8 4 9 8 3.26977 
10 8 3.04006 14 8 3.04006 15 8 3.26977 
16 7.50535 4 16 8 3.6919 16.4946 8 4 
7 9 3.83902 7 8.68148 4 6.77955 9 4 
8 9 3.26977 16 9 3.26977 17 8.68148 4 
17 9 3.83902 17.2204 9 4 7 10 3.49462 
6.30791 10 4 8 10 3.04006 16 10 3.04006 
17 10 3.49462 17.6921 10 4 7 11 3.32225 
6.07186 11 4 17 11 3.32225 17.9281 11 4 
7 12 3.26977 6 12 4 17 12 3.26977 
18 12 4 7 13 3.32225 6.07186 13 4 
17 13 3.32225 17.9281 13 4 7 14 3.49462 
6.30791 14 4 8 14 3.04006 16 14 3.04006 
17 14 3.49462 17.6921 14 4 7 15 3.83902 
6.77955 15 4 8 15 3.26977 16 15 3.26977 
17 15 3.83902 17.2204 15 4 7 15.3185 4 
7.50535 16 4 8 16 3.6919 9 16 3.26977 
10 16 3.04006 14 16 3.04006 15 16 3.26977 
16 16 3.6919 16.4946 16 4 17 15.3185 4 
8 16.4946 4 8.68148 17 4 9 17 3.83902 
10 17 3.49462 11 17 3.32225 12 17 3.26977 
13 17 3.32225 14 17 3.49462 15 17 3.83902 
15.3185 17 4 16 16.4946 4 9 17.2204 4 
10 17.6921 4 11 17.9281 4 12 18 4 
13 17.9281 4 14 17.6921 4 15 17.2204 4 
11 5 4.91035 11 4.91035 5 10.6516 5 5 
12 5 4.82465 12 4.82465 5 13 5 4.91035 
13 4.91035 5 13.3484 5 5 9 6 4.51793 
9 5.46574 5 8.12431 6 5 10 6 4.20458 
10 5.11846 5 11 6 4.04775 13 6 4.04775 
14 5.11846 5 14 6 4.20458 15 6 4.51793 
15 5.46574 5 15.8757 6 5 7 7 4.91035 
7 6.8873 5 6.8873 7 5 8 7 4.26174 
8 6.07186 5 16 7 4.26174 16 6.07186 5 
17 7 4.91035 17 6.8873 5 17.1127 7 5 
7 8 4.26174 6.07186 8 5 17 8 4.26174 
17.9281 8 5 6 9 4.51793 6 8.12431 5 
5.46574 9 5 18 9 4.51793 18 8.12431 5 
18.5343 9 5 6 10 4.20458 5.11846 10 5 
18 10 4.20458 18.8815 10 5 5 11 4.91035 
5 10.6516 5 4.91035 11 5 6 11 4.04775 
18 11 4.04775 19 10.6516 5 19 11 4.91035 
19.0896 11 5 5 12 4.82465 4.82465 12 5 
19 12 4.82465 19.1753 12 5 5 13 4.91035 
4.91035 13 5 6 13 4.04775 18 13 4.04775 
19 13 4.91035 19.0896 13 5 5 13.3484 5 
5.11846 14 5 6 14 4.20458 18 14 4.20458 
18.8815 14 5 19 13.3484 5 6 15 4.51793 
5.46574 15 5 18 15 4.51793 18.5343 15 5 
6 15.8757 5 7 16 4.26174 6.07186 16 5 
17 16 4.26174 17.9281 16 5 18 15.8757 5 
7 17 4.91035 6.8873 17 5 8 17 4.26174 
16 17 4.26174 17 17 4.91035 17.1127 17 5 
7 17.1127 5 8 17.9281 5 9 18 4.51793 
8.12431 18 5 10 18 4.20458 11 18 4.04775 
13 18 4.04775 14 18 4.20458 15 18 4.51793 
15.8757 18 5 16 17.9281 5 17 17.1127 5 
9 18.5343 5 10 18.8815 5 10.6516 19 5 
11 19 4.91035 12 19 4.82465 13 19 4.91035 
13.3484 19 5 14 18.8815 5 15 18.5343 5 
11 19.0896 5 12 19.1753 5 13 19.0896 5 
9 5 5.46574 9 4.51793 6 8.12431 5 6 
10 5 5.11846 10 4.20458 6 11 4.04775 6 
12 4 6 13 4.04775 6 14 5 5.11846 
14 4.20458 6 15 5 5.46574 15 4.51793 6 
15.8757 5 6 7 6 5.71487 7 5.71487 6 
6.67655 6 6 8 6 5.0579 8 5.0579 6 
16 6 5.0579 16 5.0579 6 17 6 5.71487 
17 5.71487 6 17.3235 6 6 6 7 5.71487 
6 6.67655 6 5.71487 7 6 18 7 5.71487 
18 6.67655 6 18.2851 7 6 6 8 5.0579 
5.0579 8 6 18 8 5.0579 18.9421 8 6 
5 9 5.46574 5 8.12431 6 4.51793 9 6 
19 9 5.46574 19 8.12431 6 19.4821 9 6 
5 10 5.11846 4.20458 10 6 19 10 5.11846 
19.7954 10 6 4.04775 11 6 19.9523 11 6 
4 12 6 20 12 6 4.04775 13 6 
19.9523 13 6 5 14 5.11846 4.20458 14 6 
19 14 5.11846 19.7954 14 6 5 15 5.46574 
4.51793 15 6 19 15 5.46574 19.4821 15 6 
5 15.8757 6 6 16 5.0579 5.0579 16 6 
18 16 5.0579 18.9421 16 6 19 15.8757 6 
6 17 5.71487 5.71487 17 6 18 17 5.71487 
18.2851 17 6 6 17.3235 6 7 18 5.71487 
6.67655 18 6 8 18 5.0579 16 18 5.0579 
17 18 5.71487 17.3235 18 6 18 17.3235 6 
7 18.2851 6 8 18.9421 6 9 19 5.46574 
8.12431 19 6 10 19 5.11846 14 19 5.11846 
15 19 5.46574 15.8757 19 6 16 18.9421 6 
17 18.2851 6 9 19.4821 6 10 19.7954 6 
11 19.9523 6 12 20 6 13 19.9523 6 
14 19.7954 6 15 19.4821 6 9 4 6.77955 
9 3.83902 7 8.68148 4 7 10 4 6.30791 
10 3.49462 7 11 4 6.07186 11 3.32225 7 
12 3.26977 7 13 4 6.07186 13 3.32225 7 
14 4 6.30791 14 3.49462 7 15 4 6.77955 
15 3.83902 7 15.3185 4 7 7 5 6.8873 
7 4.91035 7 6.8873 5 7 8 5 6.07186 
8 4.26174 7 16 5 6.07186 16 4.26174 7 
17 5 6.8873 17 4.91035 7 17.1127 5 7 
6 6 6.67655 6 5.71487 7 5.71487 6 7 
18 6 6.67655 18 5.71487 7 18.2851 6 7 
5 7 6.8873 5 6.8873 7 4.91035 7 7 
19 7 6.8873 19 6.8873 7 19.0896 7 7 
5 8 6.07186 4.26174 8 7 19 8 6.07186 
19.7383 8 7 4 9 6.77955 4 8.68148 7 
3.83902 9 7 20 9 6.77955 20 8.68148 7 
20.161 9 7 4 10 6.30791 3.49462 10 7 
20 10 6.30791 20.5054 10 7 4 11 6.07186 
3.32225 11 7 20 11 6.07186 20.6778 11 7 
3.26977 12 7 20.7302 12 7 4 13 6.07186 
3.32225 13 7 20 13 6.07186 20.6778 13 7 
4 14 6.30791 3.49462 14 7 20 14 6.30791 
20.5054 14 7 4 15 6.77955 3.83902 15 7 
20 15 6.77955 20.161 15 7 4 15.3185 7 
5 16 6.07186 4.26174 16 7 19 16 6.07186 
19.7383 16 7 20 15.3185 7 5 17 6.8873 
4.91035 17 7 19 17 6.8873 19.0896 17 7 
5 17.1127 7 6 18 6.67655 5.71487 18 7 
18 18 6.67655 18.2851 18 7 19 17.1127 7 
6 18.2851 7 7 19 6.8873 6.8873 19 7 
8 19 6.07186 16 19 6.07186 17 19 6.8873 
17.1127 19 7 18 18.2851 7 7 19.0896 7 
8 19.7383 7 9 20 6.77955 8.68148 20 7 
10 20 6.30791 11 20 6.07186 13 20 6.07186 
14 20 6.30791 15 20 6.77955 15.3185 20 7 
16 19.7383 7 17 19.0896 7 9 20.161 7 
10 20.5054 7 11 20.6778 7 12 20.7302 7 
13 20.6778 7 14 20.5054 7 15 20.161 7 
11 3 7.74155 11 2.85024 8 10.3185 3 8 
12 3 7.62079 12 2.78027 8 13 3 7.74155 
13 2.85024 8 13.6815 3 8 8 4 7.50535 
8 3.6919 8 7.50535 4 8 9 3.26977 8 
10 3.04006 8 14 3.04006 8 15 3.26977 8 
16 4 7.50535 16 3.6919 8 16.4946 4 8 
7 4.26174 8 6.07186 5 8 17 4.26174 8 
17.9281 5 8 6 5.0579 8 5.0579 6 8 
18 5.0579 8 18.9421 6 8 5 6.07186 8 
4.26174 7 8 19 6.07186 8 19.7383 7 8 
4 8 7.50535 4 7.50535 8 3.6919 8 8 
20 7.50535 8 20 8 7.50535 20.3081 8 8 
3.26977 9 8 20.7302 9 8 3.04006 10 8 
20.9599 10 8 3 11 7.74155 3 10.3185 8 
2.85024 11 8 21 10.3185 8 21 11 7.74155 
21.1498 11 8 3 12 7.62079 2.78027 12 8 
21 12 7.62079 21.2197 12 8 3 13 7.74155 
2.85024 13 8 21 13 7.74155 21.1498 13 8 
3 13.6815 8 3.04006 14 8 20.9599 14 8 
21 13.6815 8 3.26977 15 8 20.7302 15 8 
4 16 7.50535 3.6919 16 8 20 16 7.50535 
20.3081 16 8 4 16.4946 8 4.26174 17 8 
19.7383 17 8 20 16.4946 8 5 17.9281 8 
5.0579 18 8 18.9421 18 8 19 17.9281 8 
6 18.9421 8 6.07186 19 8 17.9281 19 8 
18 18.9421 8 7 19.7383 8 8 20 7.50535 
7.50535 20 8 16 20 7.50535 16.4946 20 8 
17 19.7383 8 8 20.3081 8 9 20.7302 8 
10 20.9599 8 11 21 7.74155 10.3185 21 8 
12 21 7.62079 13 21 7.74155 13.6815 21 8 
14 20.9599 8 15 20.7302 8 16 20.3081 8 
11 21.1498 8 12 21.2197 8 13 21.1498 8 
9 3 8.83716 9 2.92344 9 8.83716 3 9 
10 3 8.12431 10 2.58828 9 11 2.42054 9 
12 2.36948 9 13 2.42054 9 14 3 8.12431 
14 2.58828 9 15 3 8.83716 15 2.92344 9 
15.1628 3 9 7 4 8.68148 7 3.83902 9 
6.77955 4 9 8 3.26977 9 16 3.26977 9 
17 4 8.68148 17 3.83902 9 17.2204 4 9 
6 5 8.12431 6 4.51793 9 5.46574 5 9 
18 5 8.12431 18 4.51793 9 18.5343 5 9 
5 6 8.12431 5 5.46574 9 4.51793 6 9 
19 6 8.12431 19 5.46574 9 19.4821 6 9 
4 7 8.68148 4 6.77955 9 3.83902 7 9 
20 7 8.68148 20 6.77955 9 20.161 7 9 
3.26977 8 9 20.7302 8 9 3 9 8.83716 
3 8.83716 9 2.92344 9 9 21 8.83716 9 
21 9 8.83716 21.0766 9 9 3 10 8.12431 
2.58828 10 9 21 10 8.12431 21.4117 10 9 
2.42054 11 9 21.5795 11 9 2.36948 12 9 
21.6305 12 9 2.42054 13 9 21.5795 13 9 
3 14 8.12431 2.58828 14 9 21 14 8.12431 
21.4117 14 9 3 15 8.83716 2.92344 15 9 
21 15 8.83716 21.0766 15 9 3 15.1628 9 
3.26977 16 9 20.7302 16 9 21 15.1628 9 
4 17 8.68148 3.83902 17 9 20 17 8.68148 
20.161 17 9 4 17.2204 9 5 18 8.12431 
4.51793 18 9 19 18 8.12431 19.4821 18 9 
20 17.2204 9 5 18.5343 9 6 19 8.12431 
5.46574 19 9 18 19 8.12431 18.5343 19 9 
19 18.5343 9 6 19.4821 9 7 20 8.68148 
6.77955 20 9 17 20 8.68148 17.2204 20 9 
18 19.4821 9 7 20.161 9 8 20.7302 9 
9 21 8.83716 8.83716 21 9 10 21 8.12431 
14 21 8.12431 15 21 8.83716 15.1628 21 9 
16 20.7302 9 17 20.161 9 9 21.0766 9 
10 21.4117 9 11 21.5795 9 12 21.6305 9 
13 21.5795 9 14 21.4117 9 15 21.0766 9 
9 2.58828 10 8.12431 3 10 10 2.32066 10 
11 2.18672 10 12 2.14594 10 13 2.18672 10 
14 2.32066 10 15 2.58828 10 15.8757 3 10 
7 3.49462 10 6.30791 4 10 8 3.04006 10 
16 3.04006 10 17 3.49462 10 17.6921 4 10 
6 4.20458 10 5.11846 5 10 18 4.20458 10 
18.8815 5 10 5 5.11846 10 4.20458 6 10 
19 5.11846 10 19.7954 6 10 4 6.30791 10 
3.49462 7 10 20 6.30791 10 20.5054 7 10 
3.04006 8 10 20.9599 8 10 3 8.12431 10 
2.58828 9 10 21 8.12431 10 21.4117 9 10 
2.32066 10 10 21.6793 10 10 2.18672 11 10 
21.8133 11 10 2.14594 12 10 21.8541 12 10 
2.18672 13 10 21.8133 13 10 2.32066 14 10 
21.6793 14 10 2.58828 15 10 21.4117 15 10 
3 15.8757 10 3.04006 16 10 20.9599 16 10 
[...]
POINT_DATA 1806
SCALARS scalars double
LOOKUP_TABLE default
0.68369475894 0.68369475894 0.68369475894 0.68369475894 0.68369475894 0.68369475894 0.68369475894 0.68369475894 0.68369475894 
0.68369475894 0.68369475894 0.68369475894 0.68369475894 0.68369475894 0.68369475894 0.68369475894 0.68307700016 0.68369475894 
0.68307700016 0.68307700016 0.68307700016 0.68369475894 0.68369475894 0.68369475894 0.68369475894 0.68369475894 0.68369475894 
0.68369475894 0.68307700016 0.68307700016 0.68369475894 0.68369475894 0.68369475894 0.68369475894 0.68369475894 0.68369475894 
0.68369475894 0.68369475894 0.68369475894 0.68369475894 0.68307700016 0.68307700016 0.68307700016 0.68369475894 0.68369475894 
0.68369475894 0.68369475894 0.68369475894 0.68369475894 0.68369475894 0.68369475894 0.68369475894 0.68369475894 0.68369475894 
0.68369475894 0.68369475894 0.68369475894 0.68369475894 0.68369475894 0.68369475894 0.68369475894 0.68369475894 0.68369475894 
0.68369475894 0.68369475894 0.68369475894 0.68369475894 0.68369475894 0.68369475894 0.68369475894 0.68369475894 0.68369475894 
0.68369475894 0.68369475894 0.68369475894 0.68369475894 0.68369475894 0.68369475894 0.68369475894 0.68369475894 0.68369475894 
0.68369475894 0.68369475894 0.68369475894 0.68369475894 0.68369475894 0.68369475894 0.68369475894 0.68369475894 0.68369475894 
0.68369475894 0.68369475894 0.68369475894 0.68369475894 0.68369475894 0.68369475894 0.68369475894 0.68369475894 0.68369475894 
0.68369475894 0.68369475894 0.68369475894 0.68369475894 0.68369475894 0.68369475894 0.68369475894 0.68369475894 0.68307700016 
0.68307700016 0.68307700016 0.68307700016 0.68307700016 0.68307700016 0.68369475894 0.68369475894 0.68369475894 0.68369475894 
0.68369475894 0.68307700016 0.68307700016 0.68307700016 0.68307700016 0.68307700016 0.68369475894 0.68369475894 0.68369475894 
0.68369475894 0.68307700016 0.68307700016 0.68307700016 0.68307700016 0.68369475894 0.68369475894 0.68369475894 0.68307700016 
0.68307700016 0.68307700016 0.68369475894 0.68369475894 0.68307700016 0.68307700016 0.68369475894 0.68369475894 0.68369475894 
0.68307700016 0.68369475894 0.68369475894 0.68369475894 0.68369475894 0.68369475894 0.68369475894 0.68369475894 0.68369475894 
0.68369475894 0.68369475894 0.68369475894 0.68369475894 0.68369475894 0.68369475894 0.68369475894 0.68369475894 0.68369475894 
0.68369475894 0.68369475894 0.68369475894 0.68369475894 0.68369475894 0.68369475894 0.68369475894 0.68369475894 0.68369475894 
0.68369475894 0.68369475894 0.68369475894 0.68369475894 0.68369475894 0.68369475894 0.68369475894 0.68369475894 0.68369475894 
0.68369475894 0.68369475894 0.68369475894 0.68369475894 0.68369475894 0.68369475894 0.68369475894 0.68369475894 0.68369475894 
0.68369475894 0.68369475894 0.68369475894 0.68307700016 0.68307700016 0.68307700016 0.68307700016 0.68307700016 0.68369475894 
0.68369475894 0.68369475894 0.68369475894 0.68369475894 0.68369475894 0.68307700016 0.68307700016 0.68307700016 0.68307700016 
0.68307700016 0.68307700016 0.68369475894 0.68369475894 0.68369475894 0.68369475894 0.68369475894 0.68307700016 0.68307700016 
0.68307700016 0.68307700016 0.68307700016 0.68369475894 0.68369475894 0.68307700016 0.68307700016 0.68369475894 0.68369475894 
0.68369475894 0.68307700016 0.68307700016 0.68307700016 0.68369475894 0.68369475894 0.68307700016 0.68307700016 0.68369475894 
0.68369475894 0.68369475894 0.68369475894 0.68307700016 0.68307700016 0.68307700016 0.68307700016 0.68369475894 0.68369475894 
0.68307700016 0.68307700016 0.68369475894 0.68369475894 0.68369475894 0.68307700016 0.68359363935 0.68359363935 0.68369475894 
0.68369475894 0.68369475894 0.68369475894 0.68359363935 0.68359363935 0.68369475894 0.68369475894 0.68369475894 0.68369475894 
0.68369475894 0.68369475894 0.68369475894 0.68369475894 0.68369475894 0.68369475894 0.68369475894 0.68369475894 0.68369475894 
0.68369475894 0.68369475894 0.68369475894 0.68369475894 0.68369475894 0.68369475894 0.68369475894 0.68369475894 0.68369475894 
0.68369475894 0.68369475894 0.68369475894 0.68369475894 0.68369475894 0.68369475894 0.68369475894 0.68369475894 0.68369475894 
0.68369475894 0.68369475894 0.68369475894 0.68369475894 0.68369475894 0.68369475894 0.68369475894 0.68369475894 0.68369475894 
0.68369475894 0.68369475894 0.68369475894 0.68369475894 0.68369475894 0.68307700016 0.68307700016 0.68307700016 0.68307700016 
0.68307700016 0.68307700016 0.68307700016 0.68307700016 0.68369475894 0.68369475894 0.68369475894 0.68369475894 0.68369475894 
0.68307700016 0.68307700016 0.68307700016 0.68307700016 0.68307700016 0.68369475894 0.68369475894 0.68369475894 0.68307700016 
0.68307700016 0.68307700016 0.68369475894 0.68369475894 0.68307700016 0.68307700016 0.68369475894 0.68369475894 0.68369475894 
0.68307700016 0.68307700016 0.68307700016 0.68369475894 0.68369475894 0.68307700016 0.68307700016 0.68369475894 0.68307700016 
0.68369475894 0.68359363935 0.68369475894 0.68359363935 0.68369475894 0.68369475894 0.68359363935 0.68359363935 0.68369475894 
0.68369475894 0.68359363935 0.68359363935 0.68369475894 0.68369475894 0.68369475894 0.68369475894 0.68359363935 0.68359363935 
0.68369475894 0.68369475894 0.68369475894 0.68369475894 0.68369475894 0.68369475894 0.68369475894 0.68369475894 0.68369475894 
0.68369475894 0.68369475894 0.68369475894 0.68369475894 0.68369475894 0.68369475894 0.68369475894 0.68369475894 0.68369475894 
0.68369475894 0.68369475894 0.68369475894 0.68369475894 0.68369475894 0.68369475894 0.68369475894 0.68369475894 0.68369475894 
0.68369475894 0.68369475894 0.68369475894 0.68327454514 0.68369475894 0.68327454514 0.68327454514 0.68327454514 0.68327454514 
0.68327454514 0.68307700016 0.68307700016 0.68307700016 0.68307700016 0.68307700016 0.68307700016 0.68307700016 0.68369475894 
0.68369475894 0.68369475894 0.68369475894 0.68369475894 0.68307700016 0.68307700016 0.68307700016 0.68307700016 0.68307700016 
0.68369475894 0.68369475894 0.68369475894 0.68307700016 0.68307700016 0.68307700016 0.68369475894 0.68369475894 0.68369475894 
0.68307700016 0.68307700016 0.68307700016 0.68369475894 0.68369475894 0.68307700016 0.68307700016 0.68369475894 0.68369475894 
0.68369475894 0.68307700016 0.68307700016 0.68307700016 0.68369475894 0.68369475894 0.68307700016 0.68307700016 0.68369475894 
0.68369475894 0.68307700016 0.68359363935 0.68369475894 0.68359363935 0.68369475894 0.68369475894 0.68359363935 0.68359363935 
0.68369475894 0.68369475894 0.68359363935 0.68359363935 0.68369475894 0.68369475894 0.68359363935 0.68359363935 0.68369475894 
0.68369475894 0.68369475894 0.68359363935 0.68359363935 0.68359363935 0.68369475894 0.68369475894 0.68359363935 0.68359363935 
0.68369475894 0.68369475894 0.68369475894 0.68369475894 0.68359363935 0.68359363935 0.68369475894 0.68369475894 0.68369475894 
0.68369475894 0.68369475894 0.68369475894 0.68369475894 0.68369475894 0.68369475894 0.68369475894 0.68369475894 0.68369475894 
0.68369475894 0.68369475894 0.68369475894 0.68369475894 0.68369475894 0.68369475894 0.68369475894 0.68369475894 0.68369475894 
0.68369475894 0.68369475894 0.68369475894 0.68369475894 0.68369475894 0.68369475894 0.68327454514 0.68327454514 0.68327454514 
0.68327454514 0.68327454514 0.68307700016 0.68307700016 0.68307700016 0.68327454514 0.68327454514 0.68327454514 0.68327454514 
0.68327454514 0.68307700016 0.68307700016 0.68307700016 0.68307700016 0.68307700016 0.68369475894 0.68369475894 0.68307700016 
0.68307700016 0.68369475894 0.68369475894 0.68307700016 0.68307700016 0.68369475894 0.68369475894 0.68307700016 0.68307700016 
0.68369475894 0.68369475894 0.68369475894 0.68307700016 0.68307700016 0.68307700016 0.68369475894 0.68307700016 0.68369475894 
0.68307700016 0.68369475894 0.68369475894 0.68369475894 0.68359363935 0.68359363935 0.68359363935 0.68369475894 0.68369475894 
0.68359363935 0.68359363935 0.68369475894 0.68369475894 0.68359363935 0.68359363935 0.68369475894 0.68369475894 0.68359363935 
0.68359363935 0.68369475894 0.68359363935 0.68369475894 0.68369475894 0.68359363935 0.68359363935 0.68369475894 0.68369475894 
0.68359363935 0.68359363935 0.68369475894 0.68369475894 0.68359363935 0.68359363935 0.68369475894 0.68369475894 0.68359363935 
0.68359363935 0.68369475894 0.68369475894 0.68369475894 0.68369475894 0.68369475894 0.68369475894 0.68369475894 0.68369475894 
0.68369475894 0.68369475894 0.68369475894 0.68369475894 0.68369475894 0.68369475894 0.68369475894 0.68369475894 0.68369475894 
0.68369475894 0.68369475894 0.68369475894 0.68327454514 0.68327454514 0.68327454514 0.68327454514 0.68327454514 0.68327454514 
0.68327454514 0.68327454514 0.68307700016 0.68307700016 0.68307700016 0.68307700016 0.68307700016 0.68327454514 0.68327454514 
0.68327454514 0.68327454514 0.68307700016 0.68307700016 0.68307700016 0.68307700016 0.68369475894 0.68369475894 0.68369475894 
0.68307700016 0.68307700016 0.68307700016 0.68369475894 0.68369475894 0.68369475894 0.68307700016 0.68307700016 0.68307700016 
0.68369475894 0.68369475894 0.68369475894 0.68307700016 0.68307700016 0.68307700016 0.68369475894 0.68307700016 0.68369475894 
0.68369475894 0.68369475894 0.68307700016 0.68307700016 0.68307700016 0.68369475894 0.68369475894 0.68307700016 0.68359363935 
0.68369475894 0.68359363935 0.68369475894 0.68359363935 0.68369475894 0.68359363935 0.68369475894 0.68369475894 0.68359363935 
0.68359363935 0.68369475894 0.68369475894 0.68359363935 0.68359363935 0.68369475894 0.68369475894 0.68359363935 0.68359363935 
0.68369475894 0.68369475894 0.68359363935 0.68359363935 0.68369475894 0.68369475894 0.68369475894 0.68359363935 0.68359363935 
0.68359363935 0.68369475894 0.68369475894 0.68369475894 0.68359363935 0.68359363935 0.68359363935 0.68369475894 0.68369475894 
0.68369475894 0.68369475894 0.68359363935 0.68359363935 0.68369475894 0.68369475894 0.68369475894 0.68369475894 0.68369475894 
0.68369475894 0.68369475894 0.68369475894 0.68369475894 0.68369475894 0.68369475894 0.68369475894 0.68369475894 0.68369475894 
0.68369475894 0.68369475894 0.68369475894 0.68327454514 0.68327454514 0.68327454514 0.68327454514 0.68327454514 0.68327454514 
0.68327454514 0.68327454514 0.68307700016 0.68327454514 0.68327454514 0.68327454514 0.68307700016 0.68307700016 0.68307700016 
0.68327454514 0.68369475894 0.68307700016 0.68307700016 0.68369475894 0.68369475894 0.68307700016 0.68307700016 0.68369475894 
0.68369475894 0.68307700016 0.68307700016 0.68369475894 0.68307700016 0.68369475894 0.68369475894 0.68307700016 0.68307700016 
0.68369475894 0.68359363935 0.68369475894 0.68359363935 0.68369475894 0.68359363935 0.68369475894 0.68359363935 0.68369475894 
0.68359363935 0.68369475894 0.68359363935 0.68369475894 0.68369475894 0.68359363935 0.68359363935 0.68369475894 0.68359363935 
0.68369475894 0.68369475894 0.68359363935 0.68359363935 0.68369475894 0.68369475894 0.68359363935 0.68359363935 0.68369475894 
0.68369475894 0.68359363935 0.68359363935 0.68369475894 0.68369475894 0.68369475894 0.68359363935 0.68359363935 0.68359363935 
0.68369475894 0.68369475894 0.68369475894 0.68369475894 0.68369475894 0.68369475894 0.68369475894 0.68327454514 0.68327454514 
0.68327454514 0.68327454514 0.68327454514 0.68327454514 0.68327454514 0.68327454514 0.68327454514 0.68327454514 0.68327454514 
0.68327454514 0.68327454514 0.68327454514 0.68327454514 0.68327454514 0.68307700016 0.68327454514 0.68327454514 0.68327454514 
0.68327454514 0.68307700016 0.68307700016 0.68307700016 0.68307700016 0.68369475894 0.68307700016 0.68369475894 0.68369475894 
0.68307700016 0.68307700016 0.68369475894 0.68369475894 0.68369475894 0.68307700016 0.68307700016 0.68307700016 0.68369475894 
0.68359363935 0.68369475894 0.68359363935 0.68369475894 0.68359363935 0.68369475894 0.68359363935 0.68369475894 0.68359363935 
0.68369475894 0.68359363935 0.68369475894 0.68359363935 0.68369475894 0.68369475894 0.68359363935 0.68359363935 0.68369475894 
0.68369475894 0.68359363935 0.68359363935 0.68369475894 0.68369475894 0.68359363935 0.68359363935 0.68369475894 0.68369475894 
0.68359363935 0.68359363935 0.68369475894 0.68369475894 0.68369475894 0.68359363935 0.68359363935 0.68359363935 0.68369475894 
0.68369475894 0.68369475894 0.68359363935 0.68359363935 0.68359363935 0.68369475894 0.68369475894 0.68369475894 0.68369475894 
0.68369475894 0.68369475894 0.68369475894 0.68359363935 0.68359363935 0.68327454514 0.68327454514 0.68327454514 0.68327454514 
0.68327454514 0.68327454514 0.68327454514 0.68327454514 0.68327454514 0.68327454514 0.68327454514 0.68327454514 0.68327454514 
0.68327454514 0.68327454514 0.68327454514 0.68327454514 0.68307700016 0.68307700016 0.68327454514 0.68307700016 0.68369475894 
0.68359363935 0.68369475894 0.68369475894 0.68359363935 0.68359363935 0.68369475894 0.68359363935 0.68369475894 0.68359363935 
0.68369475894 0.68359363935 0.68369475894 0.68359363935 0.68369475894 0.68359363935 0.68369475894 0.68359363935 0.68369475894 
0.68359363935 0.68369475894 0.68359363935 0.68369475894 0.68369475894 0.68359363935 0.68359363935 0.68369475894 0.68359363935 
0.68369475894 0.68359363935 0.68369475894 0.68369475894 0.68359363935 0.68359363935 0.68369475894 0.68369475894 0.68359363935 
0.68359363935 0.68369475894 0.68369475894 0.68369475894 0.68369475894 0.68369475894 0.68369475894 0.68359363935 0.68359363935 
0.68359363935 0.68327454514 0.68327454514 0.68327454514 0.68327454514 0.68327454514 0.68327454514 0.68327454514 0.68327454514 
0.68327454514 0.68327454514 0.68327454514 0.68327454514 0.68327454514 0.68327454514 0.68327454514 0.68327454514 0.68327454514 
0.68327454514 0.68327454514 0.68327454514 0.68327454514 0.68327454514 0.68307700016 0.68327454514 0.68369475894 0.68359363935 
0.68359363935 0.68369475894 0.68369475894 0.68359363935 0.68359363935 0.68369475894 0.68359363935 0.68369475894 0.68359363935 
0.68369475894 0.68359363935 0.68369475894 0.68359363935 0.68369475894 0.68359363935 0.68369475894 0.68359363935 0.68369475894 
0.68359363935 0.68369475894 0.68359363935 0.68369475894 0.68369475894 0.68359363935 0.68359363935 0.68369475894 0.68369475894 
0.68359363935 0.68359363935 0.68369475894 0.68359363935 0.68369475894 0.68369475894 0.68369475894 0.68359363935 0.68359363935 
0.68359363935 0.68369475894 0.68369475894 0.68359363935 0.68359363935 0.68369475894 0.68369475894 0.68369475894 0.68369475894 
0.68369475894 0.68359363935 0.68359363935 0.68359363935 0.68359363935 0.68327454514 0.68327454514 0.68327454514 0.68327454514 
0.68327454514 0.68327454514 0.68327454514 0.68327454514 0.68327454514 0.68327454514 0.68327454514 0.68327454514 0.68327454514 
0.68327454514 0.68327454514 0.68327454514 0.68327454514 0.68327454514 0.68327454514 0.68327454514 0.68327454514 0.68327454514 
0.68327454514 0.68327454514 0.68327454514 0.68327454514 0.68359363935 0.68327454514 0.68327454514 0.68359363935 0.68359363935 
0.68369475894 0.68327454514 0.68359363935 0.68359363935 0.68327454514 0.68369475894 0.68359363935 0.68359363935 0.68369475894 
0.68359363935 0.68369475894 0.68359363935 0.68369475894 0.68359363935 0.68369475894 0.68359363935 0.68369475894 0.68359363935 
0.68369475894 0.68359363935 0.68369475894 0.68369475894 0.68369475894 0.68359363935 0.68359363935 0.68359363935 0.68369475894 
0.68359363935 0.68369475894 0.68369475894 0.68359363935 0.68359363935 0.68369475894 0.68369475894 0.68369475894 0.68359363935 
0.68359363935 0.68359363935 0.68369475894 0.68369475894 0.68359363935 0.68359363935 0.68369475894 0.68369475894 0.68369475894 
0.68369475894 0.68359363935 0.68359363935 0.68359363935 0.68359363935 0.68369475894 0.68369475894 0.68369475894 0.68359363935 
0.68359363935 0.68359363935 0.68359363935 0.68327454514 0.68327454514 0.68327454514 0.68327454514 0.68327454514 0.68327454514 
0.68327454514 0.68327454514 0.68327454514 0.68327454514 0.68327454514 0.68327454514 0.68327454514 0.68327454514 0.68327454514 
0.68327454514 0.68327454514 0.68327454514 0.68327454514 0.68327454514 0.68327454514 0.68359363935 0.68359363935 0.68327454514 
0.68327454514 0.68359363935 0.68359363935 0.68327454514 0.68359363935 0.68327454514 0.68327454514 0.68359363935 0.68359363935 
0.68369475894 0.68359363935 0.68369475894 0.68359363935 0.68369475894 0.68359363935 0.68369475894 0.68359363935 0.68369475894 
0.68359363935 0.68369475894 0.68359363935 0.68369475894 0.68369475894 0.68359363935 0.68359363935 0.68369475894 0.68359363935 
0.68369475894 0.68369475894 0.68359363935 0.68359363935 0.68369475894 0.68369475894 0.68359363935 0.68359363935 0.68369475894 
0.68369475894 0.68359363935 0.68359363935 0.68369475894 0.68369475894 0.68369475894 0.68359363935 0.68359363935 0.68359363935 
0.68369475894 0.68369475894 0.68359363935 0.68359363935 0.68359363935 0.68359363935 0.68359363935 0.68327454514 0.68327454514 
0.68327454514 0.68327454514 0.68327454514 0.68327454514 0.68327454514 0.68327454514 0.68327454514 0.68327454514 0.68327454514 
0.68327454514 0.68327454514 0.68327454514 0.68327454514 0.68327454514 0.68327454514 0.68327454514 0.68327454514 0.68327454514 
0.68327454514 0.68327454514 0.68327454514 0.68327454514 0.68327454514 0.68327454514 0.68327454514 0.68327454514 0.68327454514 
0.68359363935 0.68359363935 0.68327454514 0.68327454514 0.68327454514 0.68359363935 0.68359363935 0.68359363935 0.68327454514 
0.68327454514 0.68359363935 0.68359363935 0.68327454514 0.68327454514 0.68359363935 0.68359363935 0.68327454514 0.68327454514 
0.68359363935 0.68359363935 0.68327454514 0.68327454514 0.68359363935 0.68359363935 0.68369475894 0.68359363935 0.68369475894 
0.68359363935 0.68369475894 0.68369475894 0.68369475894 0.68359363935 0.68359363935 0.68359363935 0.68369475894 0.68369475894 
0.68359363935 0.68359363935 0.68369475894 0.68359363935 0.68369475894 0.68369475894 0.68369475894 0.68359363935 0.68359363935 
0.68359363935 0.68369475894 0.68369475894 0.68369475894 0.68359363935 0.68359363935 0.68359363935 0.68369475894 0.68369475894 
0.68369475894 0.68359363935 0.68359363935 0.68359363935 0.68369475894 0.68369475894 0.68369475894 0.68359363935 0.68359363935 
0.68359363935 0.68369475894 0.68369475894 0.68369475894 0.68359363935 0.68359363935 0.68359363935 0.68359363935 0.68359363935 
0.68359363935 0.68359363935 0.68359363935 0.68359363935 0.68359363935 0.68359363935 0.68359363935 0.68327454514 0.68327454514 
0.68327454514 0.68327454514 0.68327454514 0.68327454514 0.68327454514 0.68327454514 0.68327454514 0.68327454514 0.68327454514 
0.68327454514 0.68327454514 0.68327454514 0.68327454514 0.68327454514 0.68327454514 0.68327454514 0.68327454514 0.68327454514 
0.68327454514 0.68327454514 0.68359363935 0.68359363935 0.68327454514 0.68327454514 0.68359363935 0.68359363935 0.68327454514 
0.68327454514 0.68359363935 0.68359363935 0.68327454514 0.68327454514 0.68359363935 0.68359363935 0.68327454514 0.68359363935 
0.68327454514 0.68327454514 0.68359363935 0.68359363935 0.68327454514 0.68327454514 0.68359363935 0.68359363935 0.68369475894 
0.68327454514 0.68359363935 0.68359363935 0.68369475894 0.68359363935 0.68369475894 0.68359363935 0.68369475894 0.68369475894 
0.68369475894 0.68359363935 0.68359363935 0.68359363935 0.68369475894 0.68359363935 0.68369475894 0.68369475894 0.68359363935 
0.68359363935 0.68369475894 0.68369475894 0.68359363935 0.68359363935 0.68369475894 0.68369475894 0.68369475894 0.68359363935 
0.68359363935 0.68359363935 0.68359363935 0.68359363935 0.68359363935 0.68359363935 0.68359363935 0.68359363935 0.68359363935 
0.68359363935 0.68359363935 0.68359363935 0.68359363935 0.68359363935 0.68327454514 0.68327454514 0.68327454514 0.68327454514 
0.68327454514 0.68327454514 0.68327454514 0.68327454514 0.68327454514 0.68327454514 0.68327454514 0.68327454514 0.68327454514 
0.68327454514 0.68327454514 0.68327454514 0.68327454514 0.68327454514 0.68327454514 0.68327454514 0.68327454514 0.68327454514 
0.68327454514 0.68327454514 0.68327454514 0.68359363935 0.68359363935 0.68327454514 0.68327454514 0.68327454514 0.68359363935 
0.68359363935 0.68359363935 0.68327454514 0.68327454514 0.68359363935 0.68359363935 0.68327454514 0.68327454514 0.68327454514 