# vtk DataFile Version 4.0
vtk output
ASCII
DATASET POLYDATA
POINTS 1700 float
8 2.78027 0 8 2.78027 1 7.62079 3 1 
7.62079 3 0 9 2.36948 0 9 2.36948 1 
10 2.14594 0 10 2.14594 1 11 2.03406 0 
11 2.03406 1 12 2 0 12 2 1 
13 2.03406 0 13 2.03406 1 14 2.14594 0 
14 2.14594 1 15 2.36948 0 15 2.36948 1 
16 2.78027 0 16 2.78027 1 16.3792 3 0 
16.3792 3 1 7 3.26977 0 7 3.26977 1 
6 4 1 6 4 0 17 3.26977 1 
17 3.26977 0 18 4 0 18 4 1 
5 4.82465 0 5 4.82465 1 4.82465 5 1 
4.82465 5 0 19 4.82465 0 19 4.82465 1 
19.1753 5 0 19.1753 5 1 4 6 0 
4 6 1 20 6 0 20 6 1 
3.26977 7 1 3.26977 7 0 20.7302 7 0 
20.7302 7 1 3 7.62079 0 3 7.62079 1 
2.78027 8 1 2.78027 8 0 21 7.62079 1 
21 7.62079 0 21.2197 8 0 21.2197 8 1 
2.36948 9 0 2.36948 9 1 21.6305 9 0 
21.6305 9 1 2.14594 10 0 2.14594 10 1 
21.8541 10 0 21.8541 10 1 2.03406 11 0 
2.03406 11 1 21.9659 11 0 21.9659 11 1 
2 12 0 2 12 1 22 12 0 
22 12 1 2.03406 13 0 2.03406 13 1 
21.9659 13 0 21.9659 13 1 2.14594 14 0 
2.14594 14 1 21.8541 14 0 21.8541 14 1 
2.36948 15 0 2.36948 15 1 21.6305 15 0 
21.6305 15 1 2.78027 16 0 2.78027 16 1 
21.2197 16 0 21.2197 16 1 3 16.3792 1 
3 16.3792 0 3.26977 17 0 3.26977 17 1 
21 16.3792 0 20.7302 17 1 21 16.3792 1 
20.7302 17 0 4 18 1 4 18 0 
20 18 0 20 18 1 4.82465 19 0 
4.82465 19 1 19.1753 19 0 19.1753 19 1 
5 19.1753 1 5 19.1753 0 6 20 0 
6 20 1 18 20 0 18 20 1 
19 19.1753 0 19 19.1753 1 7 20.7302 1 
7 20.7302 0 7.62079 21 0 7.62079 21 1 
17 20.7302 0 16.3792 21 1 17 20.7302 1 
16.3792 21 0 8 21.2197 1 8 21.2197 0 
9 21.6305 0 9 21.6305 1 10 21.8541 0 
10 21.8541 1 11 21.9659 0 11 21.9659 1 
12 22 0 12 22 1 13 21.9659 0 
13 21.9659 1 14 21.8541 0 14 21.8541 1 
15 21.6305 0 15 21.6305 1 16 21.2197 0 
16 21.2197 1 8 2.78027 2 7.62079 3 2 
9 2.36948 2 10 2.14594 2 11 2.03406 2 
12 2 2 13 2.03406 2 14 2.14594 2 
15 2.36948 2 16 2.78027 2 16.3792 3 2 
7 3.26977 2 6 4 2 17 3.26977 2 
18 4 2 5 4.82465 2 4.82465 5 2 
19 4.82465 2 19.1753 5 2 4 6 2 
20 6 2 3.26977 7 2 20.7302 7 2 
3 7.62079 2 2.78027 8 2 21 7.62079 2 
21.2197 8 2 2.36948 9 2 21.6305 9 2 
2.14594 10 2 21.8541 10 2 2.03406 11 2 
21.9659 11 2 2 12 2 22 12 2 
2.03406 13 2 21.9659 13 2 2.14594 14 2 
21.8541 14 2 2.36948 15 2 21.6305 15 2 
2.78027 16 2 21.2197 16 2 3 16.3792 2 
3.26977 17 2 20.7302 17 2 21 16.3792 2 
4 18 2 20 18 2 4.82465 19 2 
19.1753 19 2 5 19.1753 2 6 20 2 
18 20 2 19 19.1753 2 7 20.7302 2 
7.62079 21 2 16.3792 21 2 17 20.7302 2 
8 21.2197 2 9 21.6305 2 10 21.8541 2 
11 21.9659 2 12 22 2 13 21.9659 2 
14 21.8541 2 15 21.6305 2 16 21.2197 2 
8 2.78027 3 7.62079 3 3 9 2.36948 3 
10 2.14594 3 11 2.03406 3 12 2 3 
13 2.03406 3 14 2.14594 3 15 2.36948 3 
16 2.78027 3 16.3792 3 3 7 3.26977 3 
6 4 3 17 3.26977 3 18 4 3 
5 4.82465 3 4.82465 5 3 19 4.82465 3 
19.1753 5 3 4 6 3 20 6 3 
3.26977 7 3 20.7302 7 3 3 7.62079 3 
2.78027 8 3 21 7.62079 3 21.2197 8 3 
2.36948 9 3 21.6305 9 3 2.14594 10 3 
21.8541 10 3 2.03406 11 3 21.9659 11 3 
2 12 3 22 12 3 2.03406 13 3 
21.9659 13 3 2.14594 14 3 21.8541 14 3 
2.36948 15 3 21.6305 15 3 2.78027 16 3 
21.2197 16 3 3 16.3792 3 3.26977 17 3 
20.7302 17 3 21 16.3792 3 4 18 3 
20 18 3 4.82465 19 3 19.1753 19 3 
5 19.1753 3 6 20 3 18 20 3 
19 19.1753 3 7 20.7302 3 7.62079 21 3 
16.3792 21 3 17 20.7302 3 8 21.2197 3 
9 21.6305 3 10 21.8541 3 11 21.9659 3 
12 22 3 13 21.9659 3 14 21.8541 3 
15 21.6305 3 16 21.2197 3 8 2.78027 4 
7.62079 3 4 9 2.36948 4 10 2.14594 4 
11 2.03406 4 12 2 4 13 2.03406 4 
14 2.14594 4 15 2.36948 4 16 2.78027 4 
16.3792 3 4 7 3.26977 4 6 4 4 
17 3.26977 4 18 4 4 5 4.82465 4 
4.82465 5 4 19 4.82465 4 19.1753 5 4 
4 6 4 20 6 4 3.26977 7 4 
20.7302 7 4 3 7.62079 4 2.78027 8 4 
21 7.62079 4 21.2197 8 4 2.36948 9 4 
21.6305 9 4 2.14594 10 4 21.8541 10 4 
2.03406 11 4 21.9659 11 4 2 12 4 
22 12 4 2.03406 13 4 21.9659 13 4 
2.14594 14 4 21.8541 14 4 2.36948 15 4 
21.6305 15 4 2.78027 16 4 21.2197 16 4 
3 16.3792 4 3.26977 17 4 20.7302 17 4 
21 16.3792 4 4 18 4 20 18 4 
4.82465 19 4 19.1753 19 4 5 19.1753 4 
6 20 4 18 20 4 19 19.1753 4 
7 20.7302 4 7.62079 21 4 16.3792 21 4 
17 20.7302 4 8 21.2197 4 9 21.6305 4 
10 21.8541 4 11 21.9659 4 12 22 4 
13 21.9659 4 14 21.8541 4 15 21.6305 4 
16 21.2197 4 8 2.78027 5 7.62079 3 5 
9 2.36948 5 10 2.14594 5 11 2.03406 5 
12 2 5 13 2.03406 5 14 2.14594 5 
15 2.36948 5 16 2.78027 5 16.3792 3 5 
7 3.26977 5 6 4 5 17 3.26977 5 
18 4 5 5 4.82465 5 4.82465 5 5 
19 4.82465 5 19.1753 5 5 4 6 5 
20 6 5 3.26977 7 5 20.7302 7 5 
3 7.62079 5 2.78027 8 5 21 7.62079 5 
21.2197 8 5 2.36948 9 5 21.6305 9 5 
2.14594 10 5 21.8541 10 5 2.03406 11 5 
21.9659 11 5 2 12 5 22 12 5 
2.03406 13 5 21.9659 13 5 2.14594 14 5 
21.8541 14 5 2.36948 15 5 21.6305 15 5 
2.78027 16 5 21.2197 16 5 3 16.3792 5 
3.26977 17 5 20.7302 17 5 21 16.3792 5 
4 18 5 20 18 5 4.82465 19 5 
19.1753 19 5 5 19.1753 5 6 20 5 
18 20 5 19 19.1753 5 7 20.7302 5 
7.62079 21 5 16.3792 21 5 17 20.7302 5 
8 21.2197 5 9 21.6305 5 10 21.8541 5 
11 21.9659 5 12 22 5 13 21.9659 5 
14 21.8541 5 15 21.6305 5 16 21.2197 5 
8 2.78027 6 7.62079 3 6 9 2.36948 6 
10 2.14594 6 11 2.03406 6 12 2 6 
13 2.03406 6 14 2.14594 6 15 2.36948 6 
16 2.78027 6 16.3792 3 6 7 3.26977 6 
6 4 6 17 3.26977 6 18 4 6 
5 4.82465 6 4.82465 5 6 19 4.82465 6 
19.1753 5 6 4 6 6 20 6 6 
3.26977 7 6 20.7302 7 6 3 7.62079 6 
2.78027 8 6 21 7.62079 6 21.2197 8 6 
2.36948 9 6 21.6305 9 6 2.14594 10 6 
21.8541 10 6 2.03406 11 6 21.9659 11 6 
2 12 6 22 12 6 2.03406 13 6 
21.9659 13 6 2.14594 14 6 21.8541 14 6 
2.36948 15 6 21.6305 15 6 2.78027 16 6 
21.2197 16 6 3 16.3792 6 3.26977 17 6 
20.7302 17 6 21 16.3792 6 4 18 6 
20 18 6 4.82465 19 6 19.1753 19 6 
5 19.1753 6 6 20 6 18 20 6 
19 19.1753 6 7 20.7302 6 7.62079 21 6 
16.3792 21 6 17 20.7302 6 8 21.2197 6 
9 21.6305 6 10 21.8541 6 11 21.9659 6 
12 22 6 13 21.9659 6 14 21.8541 6 
15 21.6305 6 16 21.2197 6 8 2.78027 7 
7.62079 3 7 9 2.36948 7 10 2.14594 7 
11 2.03406 7 12 2 7 13 2.03406 7 
14 2.14594 7 15 2.36948 7 16 2.78027 7 
16.3792 3 7 7 3.26977 7 6 4 7 
17 3.26977 7 18 4 7 5 4.82465 7 
4.82465 5 7 19 4.82465 7 19.1753 5 7 
4 6 7 20 6 7 3.26977 7 7 
20.7302 7 7 3 7.62079 7 2.78027 8 7 
21 7.62079 7 21.2197 8 7 2.36948 9 7 
21.6305 9 7 2.14594 10 7 21.8541 10 7 
2.03406 11 7 21.9659 11 7 2 12 7 
22 12 7 2.03406 13 7 21.9659 13 7 
2.14594 14 7 21.8541 14 7 2.36948 15 7 
21.6305 15 7 2.78027 16 7 21.2197 16 7 
3 16.3792 7 3.26977 17 7 20.7302 17 7 
21 16.3792 7 4 18 7 20 18 7 
4.82465 19 7 19.1753 19 7 5 19.1753 7 
6 20 7 18 20 7 19 19.1753 7 
7 20.7302 7 7.62079 21 7 16.3792 21 7 
17 20.7302 7 8 21.2197 7 9 21.6305 7 
10 21.8541 7 11 21.9659 7 12 22 7 
13 21.9659 7 14 21.8541 7 15 21.6305 7 
16 21.2197 7 8 2.78027 8 7.62079 3 8 
9 2.36948 8 10 2.14594 8 11 2.03406 8 
12 2 8 13 2.03406 8 14 2.14594 8 
15 2.36948 8 16 2.78027 8 16.3792 3 8 
7 3.26977 8 6 4 8 17 3.26977 8 
18 4 8 5 4.82465 8 4.82465 5 8 
19 4.82465 8 19.1753 5 8 4 6 8 
20 6 8 3.26977 7 8 20.7302 7 8 
3 7.62079 8 2.78027 8 8 21 7.62079 8 
21.2197 8 8 2.36948 9 8 21.6305 9 8 
2.14594 10 8 21.8541 10 8 2.03406 11 8 
21.9659 11 8 2 12 8 22 12 8 
2.03406 13 8 21.9659 13 8 2.14594 14 8 
21.8541 14 8 2.36948 15 8 21.6305 15 8 
2.78027 16 8 21.2197 16 8 3 16.3792 8 
3.26977 17 8 20.7302 17 8 21 16.3792 8 
4 18 8 20 18 8 4.82465 19 8 
19.1753 19 8 5 19.1753 8 6 20 8 
18 20 8 19 19.1753 8 7 20.7302 8 
7.62079 21 8 16.3792 21 8 17 20.7302 8 
8 21.2197 8 9 21.6305 8 10 21.8541 8 
11 21.9659 8 12 22 8 13 21.9659 8 
14 21.8541 8 15 21.6305 8 16 21.2197 8 
8 2.78027 9 7.62079 3 9 9 2.36948 9 
10 2.14594 9 11 2.03406 9 12 2 9 
13 2.03406 9 14 2.14594 9 15 2.36948 9 
16 2.78027 9 16.3792 3 9 7 3.26977 9 
6 4 9 17 3.26977 9 18 4 9 
5 4.82465 9 4.82465 5 9 19 4.82465 9 
19.1753 5 9 4 6 9 20 6 9 
3.26977 7 9 20.7302 7 9 3 7.62079 9 
2.78027 8 9 21 7.62079 9 21.2197 8 9 
2.36948 9 9 21.6305 9 9 2.14594 10 9 
21.8541 10 9 2.03406 11 9 21.9659 11 9 
2 12 9 22 12 9 2.03406 13 9 
21.9659 13 9 2.14594 14 9 21.8541 14 9 
2.36948 15 9 21.6305 15 9 2.78027 16 9 
21.2197 16 9 3 16.3792 9 3.26977 17 9 
20.7302 17 9 21 16.3792 9 4 18 9 
20 18 9 4.82465 19 9 19.1753 19 9 
5 19.1753 9 6 20 9 18 20 9 
19 19.1753 9 7 20.7302 9 7.62079 21 9 
16.3792 21 9 17 20.7302 9 8 21.2197 9 
9 21.6305 9 10 21.8541 9 11 21.9659 9 
12 22 9 13 21.9659 9 14 21.8541 9 
15 21.6305 9 16 21.2197 9 8 2.78027 10 
7.62079 3 10 9 2.36948 10 10 2.14594 10 
11 2.03406 10 12 2 10 13 2.03406 10 
14 2.14594 10 15 2.36948 10 16 2.78027 10 
16.3792 3 10 7 3.26977 10 6 4 10 
17 3.26977 10 18 4 10 5 4.82465 10 
4.82465 5 10 19 4.82465 10 19.1753 5 10 
4 6 10 20 6 10 3.26977 7 10 
20.7302 7 10 3 7.62079 10 2.78027 8 10 
21 7.62079 10 21.2197 8 10 2.36948 9 10 
21.6305 9 10 2.14594 10 10 21.8541 10 10 
2.03406 11 10 21.9659 11 10 2 12 10 
22 12 10 2.03406 13 10 21.9659 13 10 
2.14594 14 10 21.8541 14 10 2.36948 15 10 
21.6305 15 10 2.78027 16 10 21.2197 16 10 
3 16.3792 10 3.26977 17 10 20.7302 17 10 
21 16.3792 10 4 18 10 20 18 10 
4.82465 19 10 19.1753 19 10 5 19.1753 10 
6 20 10 18 20 10 19 19.1753 10 
7 20.7302 10 7.62079 21 10 16.3792 21 10 
17 20.7302 10 8 21.2197 10 9 21.6305 10 
10 21.8541 10 11 21.9659 10 12 22 10 
13 21.9659 10 14 21.8541 10 15 21.6305 10 
16 21.2197 10 8 2.78027 11 7.62079 3 11 
9 2.36948 11 10 2.14594 11 11 2.03406 11 
12 2 11 13 2.03406 11 14 2.14594 11 
15 2.36948 11 16 2.78027 11 16.3792 3 11 
7 3.26977 11 6 4 11 17 3.26977 11 
18 4 11 5 4.82465 11 4.82465 5 11 
19 4.82465 11 19.1753 5 11 4 6 11 
20 6 11 3.26977 7 11 20.7302 7 11 
3 7.62079 11 2.78027 8 11 21 7.62079 11 
21.2197 8 11 2.36948 9 11 21.6305 9 11 
2.14594 10 11 21.8541 10 11 2.03406 11 11 
21.9659 11 11 2 12 11 22 12 11 
2.03406 13 11 21.9659 13 11 2.14594 14 11 
21.8541 14 11 2.36948 15 11 21.6305 15 11 
2.78027 16 11 21.2197 16 11 3 16.3792 11 
3.26977 17 11 20.7302 17 11 21 16.3792 11 
4 18 11 20 18 11 4.82465 19 11 
19.1753 19 11 5 19.1753 11 6 20 11 
18 20 11 19 19.1753 11 7 20.7302 11 
7.62079 21 11 16.3792 21 11 17 20.7302 11 
8 21.2197 11 9 21.6305 11 10 21.8541 11 
11 21.9659 11 12 22 11 13 21.9659 11 
[...]
POINT_DATA 1700
SCALARS Scalars_ float
LOOKUP_TABLE default
0.011109 0.011109 0.011109 0.011109 0.011109 0.011109 0.011109 0.011109 0.011109 
0.011109 0.011109 0.011109 0.011109 0.011109 0.011109 0.011109 0.011109 0.011109 
0.011109 0.011109 0.011109 0.011109 0.011109 0.011109 0.011109 0.011109 0.011109 
0.011109 0.011109 0.011109 0.011109 0.011109 0.011109 0.011109 0.011109 0.011109 
0.011109 0.011109 0.011109 0.011109 0.011109 0.011109 0.011109 0.011109 0.011109 
0.011109 0.011109 0.011109 0.011109 0.011109 0.011109 0.011109 0.011109 0.011109 
0.011109 0.011109 0.011109 0.011109 0.011109 0.011109 0.011109 0.011109 0.011109 
0.011109 0.011109 0.011109 0.011109 0.011109 0.011109 0.011109 0.011109 0.011109 
0.011109 0.011109 0.011109 0.011109 0.011109 0.011109 0.011109 0.011109 0.011109 
0.011109 0.011109 0.011109 0.011109 0.011109 0.011109 0.011109 0.011109 0.011109 
0.011109 0.011109 0.011109 0.011109 0.011109 0.011109 0.011109 0.011109 0.011109 
0.011109 0.011109 0.011109 0.011109 0.011109 0.011109 0.011109 0.011109 0.011109 
0.011109 0.011109 0.011109 0.011109 0.011109 0.011109 0.011109 0.011109 0.011109 
0.011109 0.011109 0.011109 0.011109 0.011109 0.011109 0.011109 0.011109 0.011109 
0.011109 0.011109 0.011109 0.011109 0.011109 0.011109 0.011109 0.011109 0.011109 
0.011109 0.011109 0.011109 0.011109 0.011109 0.011109 0.011109 0.011109 0.011109 
0.011109 0.011109 0.011109 0.011109 0.011109 0.011109 0.011109 0.011109 0.011109 
0.011109 0.011109 0.011109 0.011109 0.011109 0.011109 0.011109 0.011109 0.011109 
0.011109 0.011109 0.011109 0.011109 0.011109 0.011109 0.011109 0.011109 0.011109 
0.011109 0.011109 0.011109 0.011109 0.011109 0.011109 0.011109 0.011109 0.011109 
0.011109 0.011109 0.011109 0.011109 0.011109 0.011109 0.011109 0.011109 0.011109 
0.011109 0.011109 0.011109 0.011109 0.011109 0.011109 0.011109 0.011109 0.011109 
0.011109 0.011109 0.011109 0.011109 0.011109 0.011109 0.011109 0.011109 0.011109 
0.011109 0.011109 0.011109 0.011109 0.011109 0.011109 0.011109 0.011109 0.011109 
0.011109 0.011109 0.011109 0.011109 0.011109 0.011109 0.011109 0.011109 0.011109 
0.011109 0.011109 0.011109 0.011109 0.011109 0.011109 0.011109 0.011109 0.011109 
0.011109 0.011109 0.011109 0.011109 0.011109 0.011109 0.011109 0.011109 0.011109 
0.011109 0.011109 0.011109 0.011109 0.011109 0.011109 0.011109 0.011109 0.011109 
0.011109 0.011109 0.011109 0.011109 0.011109 0.011109 0.011109 0.011109 0.011109 
0.011109 0.011109 0.011109 0.011109 0.011109 0.011109 0.011109 0.011109 0.011109 
0.011109 0.011109 0.011109 0.011109 0.011109 0.011109 0.011109 0.011109 0.011109 
0.011109 0.011109 0.011109 0.011109 0.011109 0.011109 0.011109 0.011109 0.011109 
0.011109 0.011109 0.011109 0.011109 0.011109 0.011109 0.011109 0.011109 0.011109 
0.011109 0.011109 0.011109 0.011109 0.011109 0.011109 0.011109 0.011109 0.011109 
0.011109 0.011109 0.011109 0.011109 0.011109 0.011109 0.011109 0.011109 0.011109 
0.011109 0.011109 0.011109 0.011109 0.011109 0.011109 0.011109 0.011109 0.011109 
0.011109 0.011109 0.011109 0.011109 0.011109 0.011109 0.011109 0.011109 0.011109 
0.011109 0.011109 0.011109 0.011109 0.011109 0.011109 0.011109 0.011109 0.011109 
0.011109 0.011109 0.011109 0.011109 0.011109 0.011109 0.011109 0.011109 0.011109 
0.011109 0.011109 0.011109 0.011109 0.011109 0.011109 0.011109 0.011109 0.011109 
0.011109 0.011109 0.011109 0.011109 0.011109 0.011109 0.011109 0.011109 0.011109 
0.011109 0.011109 0.011109 0.011109 0.011109 0.011109 0.011109 0.011109 0.011109 
0.011109 0.011109 0.011109 0.011109 0.011109 0.011109 0.011109 0.011109 0.011109 
0.011109 0.011109 0.011109 0.011109 0.011109 0.011109 0.011109 0.011109 0.011109 
0.011109 0.011109 0.011109 0.011109 0.011109 0.011109 0.011109 0.011109 0.011109 
0.011109 0.011109 0.011109 0.011109 0.011109 0.011109 0.011109 0.011109 0.011109 
0.011109 0.011109 0.011109 0.011109 0.011109 0.011109 0.011109 0.011109 0.011109 
0.011109 0.011109 0.011109 0.011109 0.011109 0.011109 0.011109 0.011109 0.011109 
0.011109 0.011109 0.011109 0.011109 0.011109 0.011109 0.011109 0.011109 0.011109 
0.011109 0.011109 0.011109 0.011109 0.011109 0.011109 0.011109 0.011109 0.011109 
0.011109 0.011109 0.011109 0.011109 0.011109 0.011109 0.011109 0.011109 0.011109 
0.011109 0.011109 0.011109 0.011109 0.011109 0.011109 0.011109 0.011109 0.011109 
0.011109 0.011109 0.011109 0.011109 0.011109 0.011109 0.011109 0.011109 0.011109 
0.011109 0.011109 0.011109 0.011109 0.011109 0.011109 0.011109 0.011109 0.011109 
0.011109 0.011109 0.011109 0.011109 0.011109 0.011109 0.011109 0.011109 0.011109 
0.011109 0.011109 0.011109 0.011109 0.011109 0.011109 0.011109 0.011109 0.011109 
0.011109 0.011109 0.011109 0.011109 0.011109 0.011109 0.011109 0.011109 0.011109 
0.011109 0.011109 0.011109 0.011109 0.011109 0.011109 0.011109 0.011109 0.011109 
0.011109 0.011109 0.011109 0.011109 0.011109 0.011109 0.011109 0.011109 0.011109 
0.011109 0.011109 0.011109 0.011109 0.011109 0.011109 0.011109 0.011109 0.011109 
0.011109 0.011109 0.011109 0.011109 0.011109 0.011109 0.011109 0.011109 0.011109 
0.011109 0.011109 0.011109 0.011109 0.011109 0.011109 0.011109 0.011109 0.011109 
0.011109 0.011109 0.011109 0.011109 0.011109 0.011109 0.011109 0.011109 0.011109 
0.011109 0.011109 0.011109 0.011109 0.011109 0.011109 0.011109 0.011109 0.011109 
0.011109 0.011109 0.011109 0.011109 0.011109 0.011109 0.011109 0.011109 0.011109 
0.011109 0.011109 0.011109 0.011109 0.011109 0.011109 0.011109 0.011109 0.011109 
0.011109 0.011109 0.011109 0.011109 0.011109 0.011109 0.011109 0.011109 0.011109 
0.011109 0.011109 0.011109 0.011109 0.011109 0.011109 0.011109 0.011109 0.011109 
0.011109 0.011109 0.011109 0.011109 0.011109 0.011109 0.011109 0.011109 0.011109 
0.011109 0.011109 0.011109 0.011109 0.011109 0.011109 0.011109 0.011109 0.011109 
0.011109 0.011109 0.011109 0.011109 0.011109 0.011109 0.011109 0.011109 0.011109 
0.011109 0.011109 0.011109 0.011109 0.011109 0.011109 0.011109 0.011109 0.011109 
0.011109 0.011109 0.011109 0.011109 0.011109 0.011109 0.011109 0.011109 0.011109 
0.011109 0.011109 0.011109 0.011109 0.011109 0.011109 0.011109 0.011109 0.011109 
0.011109 0.011109 0.011109 0.011109 0.011109 0.011109 0.011109 0.011109 0.011109 
0.011109 0.011109 0.011109 0.011109 0.011109 0.011109 0.011109 0.011109 0.011109 
0.011109 0.011109 0.011109 0.011109 0.011109 0.011109 0.011109 0.011109 0.011109 
0.011109 0.011109 0.011109 0.011109 0.011109 0.011109 0.011109 0.011109 0.011109 
0.011109 0.011109 0.011109 0.011109 0.011109 0.011109 0.011109 0.011109 0.011109 
0.011109 0.011109 0.011109 0.011109 0.011109 0.011109 0.011109 0.011109 0.011109 
0.011109 0.011109 0.011109 0.011109 0.011109 0.011109 0.011109 0.011109 0.011109 
0.011109 0.011109 0.011109 0.011109 0.011109 0.011109 0.011109 0.011109 0.011109 
0.011109 0.011109 0.011109 0.011109 0.011109 0.011109 0.011109 0.011109 0.011109 
0.011109 0.011109 0.011109 0.011109 0.011109 0.011109 0.011109 0.011109 0.011109 
0.011109 0.011109 0.011109 0.011109 0.011109 0.011109 0.011109 0.011109 0.011109 
0.011109 0.011109 0.011109 0.011109 0.011109 0.011109 0.011109 0.011109 0.011109 
0.011109 0.011109 0.011109 0.011109 0.011109 0.011109 0.011109 0.011109 0.011109 
0.011109 0.011109 0.011109 0.011109 0.011109 0.011109 0.011109 0.011109 0.011109 
0.011109 0.011109 0.011109 0.011109 0.011109 0.011109 0.011109 0.011109 0.011109 
0.011109 0.011109 0.011109 0.011109 0.011109 0.011109 0.011109 0.011109 0.011109 
0.011109 0.011109 0.011109 0.011109 0.011109 0.011109 0.011109 0.011109 0.011109 
0.011109 0.011109 0.011109 0.011109 0.011109 0.011109 0.011109 0.011109 0.011109 
0.011109 0.011109 0.011109 0.011109 0.011109 0.011109 0.011109 0.011109 0.011109 
0.011109 0.011109 0.011109 0.011109 0.011109 0.011109 0.011109 0.011109 0.011109 
0.011109 0.011109 0.011109 0.011109 0.011109 0.011109 0.011109 0.011109 0.011109 
0.011109 0.011109 0.011109 0.011109 0.011109 0.011109 0.011109 0.011109 0.011109 
0.011109 0.011109 0.011109 0.011109 0.011109 0.011109 0.011109 0.011109 0.011109 
0.011109 0.011109 0.011109 0.011109 0.011109 0.011109 0.011109 0.011109 0.011109 
0.011109 0.011109 0.011109 0.011109 0.011109 0.011109 0.011109 0.011109 0.011109 
0.011109 0.011109 0.011109 0.011109 0.011109 0.011109 0.011109 0.011109 0.011109 
0.011109 0.011109 0.011109 0.011109 0.011109 0.011109 0.011109 0.011109 0.011109 
0.011109 0.011109 0.011109 0.011109 0.011109 0.011109 0.011109 0.011109 0.011109 
0.011109 0.011109 0.011109 0.011109 0.011109 0.011109 0.011109 0.011109 0.011109 
0.011109 0.011109 0.011109 0.011109 0.011109 0.011109 0.011109 0.011109 0.011109 
0.011109 0.011109 0.011109 0.011109 0.011109 0.011109 0.011109 0.011109 0.011109 
0.011109 0.011109 0.011109 0.011109 0.011109 0.011109 0.011109 0.011109 0.011109 
0.011109 0.011109 0.011109 0.011109 0.011109 0.011109 0.011109 0.011109 0.011109 
0.011109 0.011109 0.011109 0.011109 0.011109 0.011109 0.011109 0.011109 0.011109 
0.011109 0.011109 0.011109 0.011109 0.011109 0.011109 0.011109 0.011109 0.011109 
0.011109 0.011109 0.011109 0.011109 0.011109 0.011109 0.011109 0.011109 0.011109 
0.011109 0.011109 0.011109 0.011109 0.011109 0.011109 0.011109 0.011109 0.011109 
0.011109 0.011109 0.011109 0.011109 0.011109 0.011109 0.011109 0.011109 0.011109 
0.011109 0.011109 0.011109 0.011109 0.011109 0.011109 0.011109 0.011109 0.011109 
0.011109 0.011109 0.011109 0.011109 0.011109 0.011109 0.011109 0.011109 0.011109 
0.011109 0.011109 0.011109 0.011109 0.011109 0.011109 0.011109 0.011109 0.011109 
0.011109 0.011109 0.011109 0.011109 0.011109 0.011109 0.011109 0.011109 0.011109 
0.011109 0.011109 0.011109 0.011109 0.011109 0.011109 0.011109 0.011109 0.011109 
0.011109 0.011109 0.011109 0.011109 0.011109 0.011109 0.011109 0.011109 0.011109 
0.011109 0.011109 0.011109 0.011109 0.011109 0.011109 0.011109 0.011109 0.011109 
0.011109 0.011109 0.011109 0.011109 0.011109 0.011109 0.011109 0.011109 0.011109 
0.011109 0.011109 0.011109 0.011109 0.011109 0.011109 0.011109 0.011109 0.011109 
0.011109 0.011109 0.011109 0.011109 0.011109 0.011109 0.011109 0.011109 0.011109 
0.011109 0.011109 0.011109 0.011109 0.011109 0.011109 0.011109 0.011109 0.011109 
0.011109 0.011109 0.011109 0.011109 0.011109 0.011109 0.011109 0.011109 0.011109 
0.011109 0.011109 0.011109 0.011109 0.011109 0.011109 0.011109 0.011109 0.011109 
0.011109 0.011109 0.011109 0.011109 0.011109 0.011109 0.011109 0.011109 0.011109 
0.011109 0.011109 0.011109 0.011109 0.011109 0.011109 0.011109 0.011109 0.011109 
0.011109 0.011109 0.011109 0.011109 0.011109 0.011109 0.011109 0.011109 0.011109 
0.011109 0.011109 0.011109 0.011109 0.011109 0.011109 0.011109 0.011109 0.011109 
0.011109 0.011109 0.011109 0.011109 0.011109 0.011109 0.011109 0.011109 0.011109 
0.011109 0.011109 0.011109 0.011109 0.011109 0.011109 0.011109 0.011109 0.011109 
0.011109 0.011109 0.011109 0.011109 0.011109 0.011109 0.011109 0.011109 0.011109 
0.011109 0.011109 0.011109 0.011109 0.011109 0.011109 0.011109 0.011109 0.011109 
0.011109 0.011109 0.011109 0.011109 0.011109 0.011109 0.011109 0.011109 0.011109 
0.011109 0.011109 0.011109 0.011109 0.011109 0.011109 0.011109 0.011109 0.011109 
0.011109 0.011109 0.011109 0.011109 0.011109 0.011109 0.011109 0.011109 0.011109 
0.011109 0.011109 0.011109 0.011109 0.011109 0.011109 0.011109 0.011109 0.011109 
0.011109 0.011109 0.011109 0.011109 0.011109 0.011109 0.011109 0.011109 0.011109 
0.011109 0.011109 0.011109 0.011109 0.011109 0.011109 0.011109 0.011109 0.011109 
0.011109 0.011109 0.011109 0.011109 0.011109 0.011109 0.011109 0.011109 0.011109 
0.011109 0.011109 0.011109 0.011109 0.011109 0.011109 0.011109 0.011109 0.011109 
0.011109 0.011109 0.011109 0.011109 0.011109 0.011109 0.011109 0.011109 0.011109 
0.011109 0.011109 0.011109 0.011109 0.011109 0.011109 0.011109 0.011109 0.011109 
0.011109 0.011109 0.011109 0.011109 0.011109 0.011109 0.011109 0.011109 0.011109 
0.011109 0.011109 0.011109 0.011109 0.011109 0.011109 0.011109 0.011109 0.011109 
0.011109 0.011109 0.011109 0.011109 0.011109 0.011109 0.011109 0.011109 0.011109 
0.011109 0.011109 0.011109 0.011109 0.011109 0.011109 0.011109 0.011109 0.011109 
0.011109 0.011109 0.011109 0.011109 0.011109 0.011109 0.011109 0.011109 0.011109 
0.011109 0.011109 0.011109 0.011109 0.011109 0.011109 0.011109 0.011109 0.011109 
0.011109 0.011109 0.011109 0.011109 0.011109 0.011109 0.011109 0.011109 0.011109 
0.011109 0.011109 0.011109 0.011109 0.011109 0.011109 0.011109 0.011109 0.011109 
0.011109 0.011109 0.011109 0.011109 0.011109 0.011109 0.011109 0.011109 0.011109 
0.011109 0.011109 0.011109 0.011109 0.011109 0.011109 0.011109 0.011109 0.011109 
0.011109 0.011109 0.011109 0.011109 0.011109 0.011109 0.011109 0.011109 0.011109 
0.011109 0.011109 0.011109 0.011109 0.011109 0.011109 0.011109 0.011109 0.011109 
0.011109 0.011109 0.011109 0.011109 0.011109 0.011109 0.011109 0.011109 0.011109 
0.011109 0.011109 0.011109 0.011109 0.011109 0.011109 0.011109 0.011109 0.011109 
0.011109 0.011109 0.011109 0.011109 0.011109 0.011109 0.011109 0.011109 0.011109 
0.011109 0.011109 0.011109 0.011109 0.011109 0.011109 0.011109 0.011109 0.011109 
0.011109 0.011109 0.011109 0.011109 0.011109 0.011109 0.011109 0.011109 0.011109 
0.011109 0.011109 0.011109 0.011109 0.011109 0.011109 0.011109 0.011109 0.011109 
0.011109 0.011109 0.011109 0.011109 0.011109 0.011109 0.011109 0.011109 0.011109 
0.011109 0.011109 0.011109 0.011109 0.011109 0.011109 0.011109 0.011109 0.011109 
0.011109 0.011109 0.011109 0.011109 0.011109 0.011109 0.011109 0.011109 0.011109 
0.011109 0.011109 0.011109 0.011109 0.011109 0.011109 0.011109 0.011109 0.011109 
0.011109 0.011109 0.011109 0.011109 0.011109 0.011109 0.011109 0.011109 0.011109 
0.011109 0.011109 0.011109 0.011109 0.011109 0.011109 0.011109 0.011109 0.011109 
0.011109 0.011109 0.011109 0.011109 0.011109 0.011109 0.011109 0.011109 0.011109 
0.011109 0.011109 0.011109 0.011109 0.011109 0.011109 0.011109 0.011109 0.011109 
0.011109 0.011109 0.011109 0.011109 0.011109 0.011109 0.011109 0.011109 0.011109 
0.011109 0.011109 0.011109 0.011109 0.011109 0.011109 0.011109 0.011109 0.011109 
0.011109 0.011109 0.011109 0.011109 0.011109 0.011109 0.011109 0.011109 0.011109 
0.011109 0.011109 0.011109 0.011109 0.011109 0.011109 0.011109 0.011109 0.011109 
0.011109 0.011109 0.011109 0.011109 0.011109 0.011109 0.011109 0.011109 0.011109 
0.011109 0.011109 0.011109 0.011109 0.011109 0.011109 0.011109 0.011109 0.011109 
0.011109 0.011109 0.011109 0.011109 0.011109 0.011109 0.011109 0.011109 0.011109 
0.011109 0.011109 0.011109 0.011109 0.011109 0.011109 0.011109 0.011109 0.011109 
0.011109 0.011109 0.011109 0.011109 0.011109 0.011109 0.011109 0.011109 0.011109 
0.011109 0.011109 0.011109 0.011109 0.011109 0.011109 0.011109 0.011109 0.011109 
0.011109 0.011109 0.011109 0.011109 0.011109 0.011109 0.011109 0.011109 0.011109 
0.011109 0.011109 0.011109 0.011109 0.011109 0.011109 0.011109 0.011109 0.011109 
0.011109 0.011109 0.011109 0.011109 0.011109 0.011109 0.011109 0.011109 0.011109 
0.011109 0.011109 0.011109 0.011109 0.011109 0.011109 0.011109 0.011109 0.011109 
0.011109 0.011109 0.011109 0.011109 0.011109 0.011109 0.011109 0.011109 0.011109 
0.011109 0.011109 0.011109 0.011109 0.011109 0.011109 0.011109 0.011109 0.011109 
0.011109 0.011109 0.011109 0.011109 0.011109 0.011109 0.011109 0.011109 0.011109 
0.011109 0.011109 0.011109 0.011109 0.011109 0.011109 0.011109 0.011109 0.011109 
0.011109 0.011109 0.011109 0.011109 0.011109 0.011109 0.011109 0.011109 0.011109 
0.011109 0.011109 0.011109 0.011109 0.011109 0.011109 0.011109 0.011109 
VECTORS Vectors_ float
-0.00390638 -0.00971633 0 -0.00390638 -0.00971633 0 -0.00420617 -0.00957435 0 
-0.00420617 -0.00957435 0 -0.00290241 -0.0101326 0 -0.00290241 -0.0101326 0 
-0.00192197 -0.0105213 0 -0.00192197 -0.0105213 0 -0.000957106 -0.0108002 0 
-0.000957106 -0.0108002 0 0 -0.0109018 0 0 -0.0109018 0 
0.000957106 -0.0108002 0 0.000957106 -0.0108002 0 0.00192197 -0.0105213 0 
0.00192197 -0.0105213 0 0.00290241 -0.0101326 0 0.00290241 -0.0101326 0 
0.00390638 -0.00971633 0 0.00390638 -0.00971633 0 0.00420617 -0.00957435 0 
0.00420617 -0.00957435 0 -0.00494201 -0.00902123 0 -0.00494201 -0.00902123 0 
-0.0060177 -0.00832452 0 -0.0060177 -0.00832452 0 0.00494201 -0.00902123 0 
0.00494201 -0.00902123 0 0.0060177 -0.00832452 0 0.0060177 -0.00832452 0 
-0.00714217 -0.00725767 0 -0.00714217 -0.00725767 0 -0.00725767 -0.00714217 0 
-0.00725767 -0.00714217 0 0.00714217 -0.00725767 0 0.00714217 -0.00725767 0 
0.00725767 -0.00714217 0 0.00725767 -0.00714217 0 -0.00832452 -0.0060177 0 
-0.00832452 -0.0060177 0 0.00832452 -0.0060177 0 0.00832452 -0.0060177 0 
-0.00902123 -0.00494201 0 -0.00902123 -0.00494201 0 0.00902123 -0.00494201 0 
0.00902123 -0.00494201 0 -0.00957435 -0.00420617 0 -0.00957435 -0.00420617 0 
-0.00971633 -0.00390638 0 -0.00971633 -0.00390638 0 0.00957435 -0.00420617 0 
0.00957435 -0.00420617 0 0.00971633 -0.00390638 0 0.00971633 -0.00390638 0 
-0.0101326 -0.00290241 0 -0.0101326 -0.00290241 0 0.0101326 -0.00290241 0 
0.0101326 -0.00290241 0 -0.0105213 -0.00192197 0 -0.0105213 -0.00192197 0 
0.0105213 -0.00192197 0 0.0105213 -0.00192197 0 -0.0108002 -0.000957106 0 
-0.0108002 -0.000957106 0 0.0108002 -0.000957106 0 0.0108002 -0.000957106 0 
-0.0109018 0 0 -0.0109018 0 0 0.0109018 0 0 
0.0109018 0 0 -0.0108002 0.000957106 0 -0.0108002 0.000957106 0 
0.0108002 0.000957106 0 0.0108002 0.000957106 0 -0.0105213 0.00192197 0 
-0.0105213 0.00192197 0 0.0105213 0.00192197 0 0.0105213 0.00192197 0 
-0.0101326 0.00290241 0 -0.0101326 0.00290241 0 0.0101326 0.00290241 0 
0.0101326 0.00290241 0 -0.00971633 0.00390638 0 -0.00971633 0.00390638 0 
0.00971633 0.00390638 0 0.00971633 0.00390638 0 -0.00957435 0.00420617 0 
-0.00957435 0.00420617 0 -0.00902123 0.00494201 0 -0.00902123 0.00494201 0 
0.00957435 0.00420617 0 0.00902123 0.00494201 0 0.00957435 0.00420617 0 
0.00902123 0.00494201 0 -0.00832452 0.0060177 0 -0.00832452 0.0060177 0 
0.00832452 0.0060177 0 0.00832452 0.0060177 0 -0.00725767 0.00714217 0 
-0.00725767 0.00714217 0 0.00725767 0.00714217 0 0.00725767 0.00714217 0 
-0.00714217 0.00725767 0 -0.00714217 0.00725767 0 -0.0060177 0.00832452 0 
-0.0060177 0.00832452 0 0.0060177 0.00832452 0 0.0060177 0.00832452 0 
0.00714217 0.00725767 0 0.00714217 0.00725767 0 -0.00494201 0.00902123 0 
-0.00494201 0.00902123 0 -0.00420617 0.00957435 0 -0.00420617 0.00957435 0 
0.00494201 0.00902123 0 0.00420617 0.00957435 0 0.00494201 0.00902123 0 
0.00420617 0.00957435 0 -0.00390638 0.00971633 0 -0.00390638 0.00971633 0 
-0.00290241 0.0101326 0 -0.00290241 0.0101326 0 -0.00192197 0.0105213 0 
-0.00192197 0.0105213 0 -0.000957106 0.0108002 0 -0.000957106 0.0108002 0 
0 0.0109018 0 0 0.0109018 0 0.000957106 0.0108002 0 
0.000957106 0.0108002 0 0.00192197 0.0105213 0 0.00192197 0.0105213 0 
0.00290241 0.0101326 0 0.00290241 0.0101326 0 0.00390638 0.00971633 0 
0.00390638 0.00971633 0 -0.00390638 -0.00971633 0 -0.00420617 -0.00957435 0 
-0.00290241 -0.0101326 0 -0.00192197 -0.0105213 0 -0.000957106 -0.0108002 0 
0 -0.0109018 0 0.000957106 -0.0108002 0 0.00192197 -0.0105213 0 
0.00290241 -0.0101326 0 0.00390638 -0.00971633 0 0.00420617 -0.00957435 0 
-0.00494201 -0.00902123 0 -0.0060177 -0.00832452 0 0.00494201 -0.00902123 0 
0.0060177 -0.00832452 0 -0.00714217 -0.00725767 0 -0.00725767 -0.00714217 0 
0.00714217 -0.00725767 0 0.00725767 -0.00714217 0 -0.00832452 -0.0060177 0 
0.00832452 -0.0060177 0 -0.00902123 -0.00494201 0 0.00902123 -0.00494201 0 
-0.00957435 -0.00420617 0 -0.00971633 -0.00390638 0 0.00957435 -0.00420617 0 
0.00971633 -0.00390638 0 -0.0101326 -0.00290241 0 0.0101326 -0.00290241 0 
-0.0105213 -0.00192197 0 0.0105213 -0.00192197 0 -0.0108002 -0.000957106 0 
0.0108002 -0.000957106 0 -0.0109018 0 0 0.0109018 0 0 
-0.0108002 0.000957106 0 0.0108002 0.000957106 0 -0.0105213 0.00192197 0 
0.0105213 0.00192197 0 -0.0101326 0.00290241 0 0.0101326 0.00290241 0 
-0.00971633 0.00390638 0 0.00971633 0.00390638 0 -0.00957435 0.00420617 0 