# vtk DataFile Version 4.2
vtk output
ASCII
DATASET POLYDATA
POINTS 7446 float
24 19 5.93736 24 18.8365 6 23.3296 19 6 
25 19 5.90656 25 18.7561 6 26 19 5.93736 
26 18.8365 6 26.6704 19 6 22 20 5.84599 
22 19.5301 6 21.2777 20 6 23 20 5.70041 
23 19.0859 6 24 20 5.61691 25 20 5.58969 
26 20 5.61691 27 19.0859 6 27 20 5.70041 
28 20 5.84599 28 19.5301 6 28.7223 20 6 
21 21 5.78677 21 20.2136 6 20.2136 21 6 
22 21 5.58969 23 21 5.45813 24 21 5.38267 
25 21 5.35808 26 21 5.38267 27 21 5.45813 
28 21 5.58969 29 20.2136 6 29 21 5.78677 
29.7864 21 6 20 22 5.84599 20 21.2777 6 
19.5301 22 6 21 22 5.58969 22 22 5.40754 
23 22 5.28594 24 22 5.21619 25 22 5.19346 
26 22 5.21619 27 22 5.28594 28 22 5.40754 
29 22 5.58969 30 21.2777 6 30 22 5.84599 
30.4699 22 6 20 23 5.70041 19.0859 23 6 
21 23 5.45813 22 23 5.28594 23 23 5.17099 
24 23 5.10506 25 23 5.08357 26 23 5.10506 
27 23 5.17099 28 23 5.28594 29 23 5.45813 
30 23 5.70041 30.9141 23 6 19 24 5.93736 
19 23.3296 6 18.8365 24 6 20 24 5.61691 
21 24 5.38267 22 24 5.21619 23 24 5.10506 
24 24 5.04132 25 24 5.02054 26 24 5.04132 
27 24 5.10506 28 24 5.21619 29 24 5.38267 
30 24 5.61691 31 23.3296 6 31 24 5.93736 
31.1635 24 6 19 25 5.90656 18.7561 25 6 
20 25 5.58969 21 25 5.35808 22 25 5.19346 
23 25 5.08357 24 25 5.02054 25 25 5 
26 25 5.02054 27 25 5.08357 28 25 5.19346 
29 25 5.35808 30 25 5.58969 31 25 5.90656 
31.2439 25 6 19 26 5.93736 18.8365 26 6 
20 26 5.61691 21 26 5.38267 22 26 5.21619 
23 26 5.10506 24 26 5.04132 25 26 5.02054 
26 26 5.04132 27 26 5.10506 28 26 5.21619 
29 26 5.38267 30 26 5.61691 31 26 5.93736 
31.1635 26 6 19 26.6704 6 19.0859 27 6 
20 27 5.70041 21 27 5.45813 22 27 5.28594 
23 27 5.17099 24 27 5.10506 25 27 5.08357 
26 27 5.10506 27 27 5.17099 28 27 5.28594 
29 27 5.45813 30 27 5.70041 30.9141 27 6 
31 26.6704 6 20 28 5.84599 19.5301 28 6 
21 28 5.58969 22 28 5.40754 23 28 5.28594 
24 28 5.21619 25 28 5.19346 26 28 5.21619 
27 28 5.28594 28 28 5.40754 29 28 5.58969 
30 28 5.84599 30.4699 28 6 20 28.7223 6 
20.2136 29 6 21 29 5.78677 22 29 5.58969 
23 29 5.45813 24 29 5.38267 25 29 5.35808 
26 29 5.38267 27 29 5.45813 28 29 5.58969 
29 29 5.78677 29.7864 29 6 30 28.7223 6 
21 29.7864 6 21.2777 30 6 22 30 5.84599 
23 30 5.70041 24 30 5.61691 25 30 5.58969 
26 30 5.61691 27 30 5.70041 28 30 5.84599 
28.7223 30 6 29 29.7864 6 22 30.4699 6 
23 30.9141 6 23.3296 31 6 24 31 5.93736 
25 31 5.90656 26 31 5.93736 26.6704 31 6 
27 30.9141 6 28 30.4699 6 24 31.1635 6 
25 31.2439 6 26 31.1635 6 22 17 6.90253 
22 16.8094 7 21.5618 17 7 23 17 6.74722 
23 16.5056 7 24 17 6.65814 24 16.3313 7 
25 17 6.62911 25 16.2745 7 26 17 6.65814 
26 16.3313 7 27 17 6.74722 27 16.5056 7 
28 17 6.90253 28 16.8094 7 28.4382 17 7 
20 18 6.93466 20 17.8567 7 19.8089 18 7 
21 18 6.65814 21 17.2504 7 22 18 6.46161 
23 18 6.33041 24 18 6.25517 25 18 6.23064 
26 18 6.25517 27 18 6.33041 28 18 6.46161 
29 17.2504 7 29 18 6.65814 30 18 6.93466 
30 17.8567 7 30.1911 18 7 19 19 6.87077 
19 18.6766 7 18.6766 19 7 20 19 6.54394 
21 19 6.30505 22 19 6.13526 23 19 6.02191 
27 19 6.02191 28 19 6.13526 29 19 6.30505 
30 19 6.54394 31 18.6766 7 31 19 6.87077 
31.3234 19 7 18 20 6.93466 18 19.8089 7 
17.8567 20 7 19 20 6.54394 20 20 6.25517 
21 20 6.04408 29 20 6.04408 30 20 6.25517 
31 20 6.54394 32 19.8089 7 32 20 6.93466 
32.1433 20 7 18 21 6.65814 17.2504 21 7 
19 21 6.30505 20 21 6.04408 30 21 6.04408 
31 21 6.30505 32 21 6.65814 32.7496 21 7 
17 22 6.90253 17 21.5618 7 16.8094 22 7 
18 22 6.46161 19 22 6.13526 31 22 6.13526 
32 22 6.46161 33 21.5618 7 33 22 6.90253 
33.1906 22 7 17 23 6.74722 16.5056 23 7 
18 23 6.33041 19 23 6.02191 31 23 6.02191 
32 23 6.33041 33 23 6.74722 33.4944 23 7 
17 24 6.65814 16.3313 24 7 18 24 6.25517 
32 24 6.25517 33 24 6.65814 33.6687 24 7 
17 25 6.62911 16.2745 25 7 18 25 6.23064 
32 25 6.23064 33 25 6.62911 33.7255 25 7 
17 26 6.65814 16.3313 26 7 18 26 6.25517 
32 26 6.25517 33 26 6.65814 33.6687 26 7 
17 27 6.74722 16.5056 27 7 18 27 6.33041 
19 27 6.02191 31 27 6.02191 32 27 6.33041 
33 27 6.74722 33.4944 27 7 17 28 6.90253 
16.8094 28 7 18 28 6.46161 19 28 6.13526 
31 28 6.13526 32 28 6.46161 33 28 6.90253 
33.1906 28 7 17 28.4382 7 17.2504 29 7 
18 29 6.65814 19 29 6.30505 20 29 6.04408 
30 29 6.04408 31 29 6.30505 32 29 6.65814 
32.7496 29 7 33 28.4382 7 18 30 6.93466 
17.8567 30 7 19 30 6.54394 20 30 6.25517 
21 30 6.04408 29 30 6.04408 30 30 6.25517 
31 30 6.54394 32 30 6.93466 32.1433 30 7 
18 30.1911 7 18.6766 31 7 19 31 6.87077 
20 31 6.54394 21 31 6.30505 22 31 6.13526 
23 31 6.02191 27 31 6.02191 28 31 6.13526 
29 31 6.30505 30 31 6.54394 31 31 6.87077 
31.3234 31 7 32 30.1911 7 19 31.3234 7 
19.8089 32 7 20 32 6.93466 21 32 6.65814 
22 32 6.46161 23 32 6.33041 24 32 6.25517 
25 32 6.23064 26 32 6.25517 27 32 6.33041 
28 32 6.46161 29 32 6.65814 30 32 6.93466 
30.1911 32 7 31 31.3234 7 20 32.1433 7 
21 32.7496 7 21.5618 33 7 22 33 6.90253 
23 33 6.74722 24 33 6.65814 25 33 6.62911 
26 33 6.65814 27 33 6.74722 28 33 6.90253 
28.4382 33 7 29 32.7496 7 30 32.1433 7 
22 33.1906 7 23 33.4944 7 24 33.6687 7 
25 33.7255 7 26 33.6687 7 27 33.4944 7 
28 33.1906 7 22 15 7.93164 22 14.8943 8 
21.7062 15 8 23 15 7.76733 23 14.6401 8 
24 15 7.67309 24 14.4943 8 25 15 7.64237 
25 14.4468 8 26 15 7.67309 26 14.4943 8 
27 15 7.76733 27 14.6401 8 28 15 7.93164 
28 14.8943 8 28.2938 15 8 20 16 7.83195 
20 15.7158 8 19.5301 16 8 21 16 7.55228 
21 15.2428 8 22 16 7.35351 23 16 7.22082 
24 16 7.14472 25 16 7.11991 26 16 7.14472 
27 16 7.22082 28 16 7.35351 29 15.2428 8 
29 16 7.55228 30 16 7.83195 30 15.7158 8 
30.4699 16 8 19 17 7.64237 19 16.3313 8 
18.1445 17 8 20 17 7.32637 21 17 7.09539 
29 17 7.09539 30 17 7.32637 31 16.3313 8 
31 17 7.64237 31.8555 17 8 18 18 7.58197 
18 17.1238 8 17.1238 18 8 19 18 7.22082 
31 18 7.22082 32 17.1238 8 32 18 7.58197 
32.8762 18 8 17 19 7.64237 17 18.1445 8 
16.3313 19 8 18 19 7.22082 32 19 7.22082 
33 18.1445 8 33 19 7.64237 33.6687 19 8 
16 20 7.83195 16 19.5301 8 15.7158 20 8 
17 20 7.32637 33 20 7.32637 34 19.5301 8 
34 20 7.83195 34.2842 20 8 16 21 7.55228 
15.2428 21 8 17 21 7.09539 33 21 7.09539 
34 21 7.55228 34.7572 21 8 15 22 7.93164 
15 21.7062 8 14.8943 22 8 16 22 7.35351 
34 22 7.35351 35 21.7062 8 35 22 7.93164 
35.1057 22 8 15 23 7.76733 14.6401 23 8 
16 23 7.22082 34 23 7.22082 35 23 7.76733 
35.3599 23 8 15 24 7.67309 14.4943 24 8 
16 24 7.14472 34 24 7.14472 35 24 7.67309 
35.5057 24 8 15 25 7.64237 14.4468 25 8 
16 25 7.11991 34 25 7.11991 35 25 7.64237 
35.5532 25 8 15 26 7.67309 14.4943 26 8 
16 26 7.14472 34 26 7.14472 35 26 7.67309 
35.5057 26 8 15 27 7.76733 14.6401 27 8 
16 27 7.22082 34 27 7.22082 35 27 7.76733 
35.3599 27 8 15 28 7.93164 14.8943 28 8 
16 28 7.35351 34 28 7.35351 35 28 7.93164 
35.1057 28 8 15 28.2938 8 15.2428 29 8 
16 29 7.55228 17 29 7.09539 33 29 7.09539 
34 29 7.55228 34.7572 29 8 35 28.2938 8 
16 30 7.83195 15.7158 30 8 17 30 7.32637 
33 30 7.32637 34 30 7.83195 34.2842 30 8 
16 30.4699 8 16.3313 31 8 17 31 7.64237 
18 31 7.22082 32 31 7.22082 33 31 7.64237 
33.6687 31 8 34 30.4699 8 17 31.8555 8 
17.1238 32 8 18 32 7.58197 19 32 7.22082 
31 32 7.22082 32 32 7.58197 32.8762 32 8 
33 31.8555 8 18 32.8762 8 18.1445 33 8 
19 33 7.64237 20 33 7.32637 21 33 7.09539 
29 33 7.09539 30 33 7.32637 31 33 7.64237 
31.8555 33 8 32 32.8762 8 19 33.6687 8 
19.5301 34 8 20 34 7.83195 21 34 7.55228 
22 34 7.35351 23 34 7.22082 24 34 7.14472 
25 34 7.11991 26 34 7.14472 27 34 7.22082 
28 34 7.35351 29 34 7.55228 30 34 7.83195 
30.4699 34 8 31 33.6687 8 20 34.2842 8 
21 34.7572 8 21.7062 35 8 22 35 7.93164 
23 35 7.76733 24 35 7.67309 25 35 7.64237 
26 35 7.67309 27 35 7.76733 28 35 7.93164 
28.2938 35 8 29 34.7572 8 30 34.2842 8 
22 35.1057 8 23 35.3599 8 24 35.5057 8 
25 35.5532 8 26 35.5057 8 27 35.3599 8 
28 35.1057 8 21 14 8.75581 21 13.6678 9 
20.2136 14 9 22 14 8.53012 22 13.3608 9 
23 14 8.37945 23 13.1559 9 24 14 8.29304 
24 13.0383 9 25 14 8.26487 25 13 9 
26 14 8.29304 26 13.0383 9 27 14 8.37945 
27 13.1559 9 28 14 8.53012 28 13.3608 9 
29 14 8.75581 29 13.6678 9 29.7864 14 9 
19 15 8.72247 19 14.591 9 18.3674 15 9 
20 15 8.37945 20 14.0854 9 21 15 8.12871 
29 15 8.12871 30 14.0854 9 30 15 8.37945 
31 15 8.72247 31 14.591 9 31.6326 15 9 
18 16 8.53012 18 15.2428 9 17.0615 16 9 
19 16 8.15534 31 16 8.15534 32 15.2428 9 
32 16 8.53012 32.9385 16 9 17 17 8.46883 
17 16.0537 9 16.0537 17 9 18 17 8.05062 
32 17 8.05062 33 16.0537 9 33 17 8.46883 
33.9463 17 9 16 18 8.53012 16 17.0615 9 
15.2428 18 9 17 18 8.05062 33 18 8.05062 
34 17.0615 9 34 18 8.53012 34.7572 18 9 
15 19 8.72247 15 18.3674 9 14.591 19 9 
16 19 8.15534 34 19 8.15534 35 18.3674 9 
35 19 8.72247 35.409 19 9 15 20 8.37945 
14.0854 20 9 35 20 8.37945 35.9146 20 9 
14 21 8.75581 14 20.2136 9 13.6678 21 9 
15 21 8.12871 35 21 8.12871 36 20.2136 9 
36 21 8.75581 36.3322 21 9 14 22 8.53012 
13.3608 22 9 36 22 8.53012 36.6392 22 9 
14 23 8.37945 13.1559 23 9 36 23 8.37945 
36.8441 23 9 14 24 8.29304 13.0383 24 9 
36 24 8.29304 36.9617 24 9 14 25 8.26487 
13 25 9 36 25 8.26487 37 25 9 
14 26 8.29304 13.0383 26 9 36 26 8.29304 
36.9617 26 9 14 27 8.37945 13.1559 27 9 
36 27 8.37945 36.8441 27 9 14 28 8.53012 
13.3608 28 9 36 28 8.53012 36.6392 28 9 
14 29 8.75581 13.6678 29 9 15 29 8.12871 
35 29 8.12871 36 29 8.75581 36.3322 29 9 
14 29.7864 9 14.0854 30 9 15 30 8.37945 
35 30 8.37945 35.9146 30 9 36 29.7864 9 
15 31 8.72247 14.591 31 9 16 31 8.15534 
34 31 8.15534 35 31 8.72247 35.409 31 9 
15 31.6326 9 15.2428 32 9 16 32 8.53012 
17 32 8.05062 33 32 8.05062 34 32 8.53012 
34.7572 32 9 35 31.6326 9 16 32.9385 9 
16.0537 33 9 17 33 8.46883 18 33 8.05062 
32 33 8.05062 33 33 8.46883 33.9463 33 9 
34 32.9385 9 17 33.9463 9 17.0615 34 9 
18 34 8.53012 19 34 8.15534 31 34 8.15534 
32 34 8.53012 32.9385 34 9 33 33.9463 9 
18 34.7572 9 18.3674 35 9 19 35 8.72247 
20 35 8.37945 21 35 8.12871 29 35 8.12871 
30 35 8.37945 31 35 8.72247 31.6326 35 9 
32 34.7572 9 19 35.409 9 20 35.9146 9 
[...]
POINT_DATA 7446
SCALARS scalars double
LOOKUP_TABLE default
-0.009439540256 -0.009439540256 -0.009439540256 -0.0066721126576 -0.0078615426272 -0.018258128988 -0.022434355829 -0.018258128988 -0.0010174065455 
-0.0010174065455 -0.0039814501587 -0.009439540256 -0.009439540256 -0.009439540256 -0.0067879949384 -0.0019933138967 -0.019099955017 -0.019099955017 
-0.023099526988 -0.023099526988 -0.023753687731 -0.0039814501587 -0.0039814501587 -0.0039814501587 -0.00095750985042 -0.00073659901524 0.003368317923 
0.0032240465297 0.0034381057797 0.00091626004389 -0.0008033782524 -0.0069730351635 -0.0069730351635 -0.0069730351635 -0.016841560235 -0.017318508435 
-0.016841560235 -3.3059479857e-05 0.003337038733 0.0027779810647 0.0026505248193 0.0025776598577 0.0026791470221 0.0027927391931 0.0031830402514 
-0.0022913755603 -0.0069730351635 -0.0071057817243 -0.0071057817243 -0.013311767187 -0.014067383199 0.0011002498643 0.0027779815165 0.0025767385371 
0.0022446730197 0.0021371356851 0.002188067029 0.0023043248586 0.0027927381976 -7.6762237133e-05 -0.012063175283 -0.012063175283 -0.013311767187 
-0.014067383199 -0.015539494247 -0.00019036947584 0.0033503434358 0.0026505252714 0.0022446728637 0.0019983970586 0.0018848391661 0.0018905995131 
0.0021880679865 0.0026791461728 0.0034381044948 -0.012063175283 -0.012063175283 -0.012063175283 -0.012063175283 -0.008028410073 -0.01004659094 
-0.0016073414217 0.0032240455374 0.0025776592248 0.0021371356858 0.0018848399274 0.0017729918901 0.0018848396323 0.0021371359973 0.0025776590049 
0.0032240460969 -0.0016073411211 -0.0080284204831 -0.01004661973 -0.012063165162 -0.012063165162 -0.012063165162 0.0034381053403 0.0026791464667 
0.0021880676673 0.001890599681 0.001884839772 0.0019983972124 0.0022446729766 0.0026505248193 0.0033503419643 -0.00019035782984 -0.013311767023 
-0.015539436392 -0.012063165162 -0.012063165162 -0.012063165162 -7.6764490365e-05 0.0027927388645 0.0023043250368 0.0021880678559 0.0021371372433 
0.0022446729766 0.002576739073 0.0027779816294 0.0011002515865 -0.013311767023 -0.014067378254 -0.014067378254 -0.0071057372154 -0.0071057372154 
-0.0022913665244 0.0031830404204 0.0027927381976 0.0026791458084 0.0025776573279 0.0026505248176 0.00277798242 0.0033370361768 -3.3054611999e-05 
-0.016841580498 -0.016841580498 -0.0069730606717 -0.0069730606717 -0.0069730606717 -0.00080338009064 0.00091626021218 0.0034381062619 0.0032240474855 
0.0033683165828 -0.00073659453355 -0.00095750439228 -0.0039814501587 -0.0039814501587 -0.017318508435 -0.0069730606717 -0.023753687731 -0.023099532807 
-0.019099958525 -0.0019932899018 -0.0067879962934 -0.0094395362815 -0.0094395362815 -0.0010173583566 -0.0039814501587 -0.0039814501587 -0.023099532807 
-0.019099958525 -0.018258128764 -0.018258128764 -0.0066721139689 -0.0094395362815 -0.0094395362815 -0.0094395362815 -0.0010173583566 -0.022434275236 
-0.0078615524951 -0.0094395362815 -0.0043485002046 -0.0046114629891 -0.0046114629891 -0.004642852032 -0.0035686272117 0.0014755975651 0.0014755975651 
0.00083187434787 0.0013473742911 0.00016440860284 0.00079714942929 -0.00089547513556 -0.00089547513556 -0.0043819303094 -0.005550959886 -0.005550959886 
-0.0060188114603 -0.0060188114603 -0.0060188114603 -0.0075850561919 -0.0075850561919 -0.0053799667085 -0.0053799667085 -0.009439540256 -0.0081462193046 
-0.022434355829 -0.022434355829 -0.0012243304267 -0.0094064927832 -0.0094064927832 -0.0094064927832 -0.0094064927832 -0.0094064927832 -0.0065993849252 
-0.0065993849252 -0.0065993849252 -0.0060188114603 -0.0060188114603 -0.0010174065455 -0.009439540256 -0.018258128988 -0.023099526988 -0.0067810024184 
-0.009085340077 -0.015086359891 -0.015086359891 -0.015086359891 -0.0034370550803 -0.0034370550803 -0.0034370550803 -0.0063553104933 -0.0039814501587 
-0.0039814501587 -0.0069730351635 -0.0069730351635 -0.01375917102 -0.01375917102 -0.01375917102 -0.01375917102 -0.0034370550803 -0.0034370550803 
-0.0063553104933 -0.0039814501587 -0.0069730351635 -0.0023024137928 -0.01375917102 -0.01375917102 -0.0017415598305 -0.0018947073343 -0.0018947073343 
-0.014067383199 -0.016841560235 -0.0071057817243 -0.0081418410629 -0.008885368573 -0.0066096096943 -0.0080315697767 0.00082414951774 0.00066310830865 
-0.014067383199 -0.014067383199 -0.012063175283 -0.0071057817243 -0.0073538344047 -0.0073538344047 0.00037162410196 0.0014854545706 -0.015539494247 
-0.012063175283 0.00080501031622 0.00080501031622 0.00082628105891 0.0013505582947 -0.01048248154 -0.010482456104 0.00082627579406 0.0013506125908 
0.00080508096646 0.00080508096646 -0.012063165162 -0.015539436392 0.0003716171438 0.0014853944527 -0.0073536706219 -0.0073536706219 -0.0071057372154 
-0.012063165162 -0.014067378254 -0.014067378254 0.0008242717426 0.00066321138154 -0.0066095615216 -0.0080313155546 -0.0081416475496 -0.0071057372154 
-0.016841580498 -0.014067378254 -0.0017415415964 -0.0018947276132 -0.0088852985093 -0.013759161121 -0.013759161121 -0.0023024137928 -0.0069730606717 
-0.0039814501587 -0.0063553084082 -0.0034370659993 -0.0034370659993 -0.0018947276132 -0.013759161121 -0.013759161121 -0.013759161121 -0.0069730606717 
-0.0069730606717 -0.0039814501587 -0.0039814501587 -0.0063553084082 -0.0034370659993 -0.0034370659993 -0.013759161121 -0.015086374738 -0.015086374738 
-0.0090853210606 -0.0067810289322 -0.023099532807 -0.018258128764 -0.0094395362815 -0.0010173583566 -0.0060188157906 -0.0060188157906 -0.00659938276 
-0.00659938276 -0.0034370659993 -0.015086374738 -0.00940650204 -0.00940650204 -0.00940650204 -0.0012243303385 -0.022434275236 -0.022434275236 
-0.0081461956659 -0.0094395362815 -0.0053803010204 -0.0053803010204 -0.0075855361799 -0.0060188157906 -0.0060188157906 -0.00659938276 -0.00940650204 
-0.00940650204 -0.0055509852772 -0.0043818551735 -0.00089533202705 0.00016440801222 0.00083187135944 0.0014755323294 -0.0046431290211 -0.0043487150437 
-0.0046117858382 -0.0075855361799 -0.0060188157906 -0.0055509852772 -0.00089533202705 0.00079728508347 0.0013474109584 0.0014755323294 -0.0035688423712 
-0.0046117858382 -0.0051608398744 -0.0051608398744 -0.0051608398744 -0.0048119365979 -0.0060346711876 0.0012473256245 0.01788083199 0.0012251194287 
0.0026132509214 0.0012577761509 0.0090825064901 0.0001919178643 0.0002529206497 -0.0027913896691 -0.0027913896691 -0.0027913896691 -5.5337118488e-05 
-5.5337118488e-05 -0.0042935912299 -0.0054332441391 -0.0054332441391 -0.0054332441391 -0.0051608398744 0.0011955297224 0.0011801806638 0.00065758360331 
-0.00083267991509 -0.005550959886 -0.0028885740426 -0.005550959886 -0.0026326450994 -0.0026326450994 -0.014237368107 -0.0042935912299 -0.0042935912299 
-0.014361814157 -0.0060188114603 -0.0075850561919 -0.0094064927832 -0.0094064927832 -0.014237368107 -0.014237368107 -0.014360984246 -0.014361814157 
-0.014361814157 -0.014361814157 -0.0060188114603 -0.009085340077 -0.014360984246 -0.014360984246 -0.014360984246 -0.014238384604 -0.014361814157 
-0.014238384604 -0.0017677058581 -0.01375917102 -0.014360984246 -0.0042912429472 -0.0042912429472 -0.0026983629873 -0.014238384604 -0.0026983629873 
-0.0034370550803 -0.01375917102 -0.0042912429472 -0.0019545020807 -0.0019545020807 -0.0027913984821 -0.0027913984821 -0.0034370550803 -0.01375917102 
-0.011143654731 -0.011143654731 -0.0027913984821 -0.0027913984821 -0.0027913984821 -0.0019600339916 -0.011143654731 -0.010041410424 -0.010041410424 
-0.010041410424 0.0021690570804 0.0022563139467 0.00083608843307 -0.0068416138556 -0.010041410424 -0.014249677762 0.0012470261675 0.012615475014 
0.0011943923854 0.00066887336651 0.0012680316456 0.01366396183 0.0012344242592 0.0026382747126 0.0011829732206 0.001183028655 0.0012344300011 
0.0026382546327 0.0012680355469 0.013665429003 0.00066892998585 0.0011943378569 0.0012469905997 0.012615835211 -0.01004095498 -0.014248257509 
-0.0068414997057 0.00083622724679 0.0021692638717 0.0022565990714 -0.01004095498 -0.01004095498 -0.01114268677 -0.0019600682972 -0.0027912757426 
-0.0027912757426 -0.01004095498 -0.01114268677 -0.01114268677 -0.013759161121 -0.0034370659993 -0.0027912757426 -0.0027912757426 -0.0027912757426 
-0.0019544783014 -0.0019544783014 -0.013759161121 -0.0034370659993 -0.002698225992 -0.002698225992 -0.0042935720351 -0.0042935720351 -0.0042935720351 
-0.013759161121 -0.0017677198037 -0.01423952507 -0.01423952507 -0.01423952507 -0.014363877458 -0.014363877458 -0.014363877458 -0.0090853210606 
-0.0060188157906 -0.014362944757 -0.014362944757 -0.014362944757 -0.014363877458 -0.014363877458 -0.014240616447 -0.00940650204 -0.00940650204 
-0.0075855361799 -0.0060188157906 -0.0042912207739 -0.014362944757 -0.014362944757 -0.014240616447 -0.014240616447 -0.0026325285327 -0.0055509852772 
-0.0055509852772 -0.00083253507848 0.00065769347746 0.0011802217956 0.0011954807652 -0.0051618775748 -0.0054345353169 -0.0054345353169 -5.5280785874e-05 
-0.0042912207739 -0.0042912207739 -0.0026325285327 -0.0028884375331 -0.0027912834207 -0.0027912834207 0.00019234390687 0.001257912578 0.0012252708685 
0.0012472851923 -0.0048131338081 -0.0051618775748 -0.0051618775748 -0.0054345353169 -5.5280785874e-05 -0.0027912834207 0.00025347640444 0.0090839465224 
0.0026132526416 0.017880808063 -0.0060362963685 -0.0051618775748 0.00093401735956 0.001202084335 0.001202084335 -0.0060346711876 -0.017017472327 
-0.034081308851 0.01723795184 0.01788083199 0.017511061628 0.0099796175312 0.01788083199 0.0090825064901 0.0097731505866 0.0002529206497 
0.0097731505866 -0.0036786574884 0.0002529206497 -0.0057226812346 -0.0057226812346 -0.0057226812346 0.0014066109155 0.0020657438696 0.0057397837985 
0.00093401735956 0.001202084335 -0.0048119365979 -0.0027913896691 -0.0057226812346 -0.0057226812346 -0.0057226812346 -0.0057226812346 -0.034858016801 
-0.0099315378126 0.0057397837985 -0.035097037749 -0.0042935912299 -0.014237368107 -0.034858016801 -0.034858016801 -0.03509704236 -0.035097037749 
-0.035097037749 -0.035097037749 -0.014361814157 -0.014360984246 -0.03509704236 -0.03509704236 -0.03509704236 -0.034858363667 -0.035097037749 
-0.034858363667 -0.014361814157 -0.014360984246 -0.03509704236 -0.0099261537213 0.0057398810679 -0.0057226812346 -0.034858363667 -0.0057226812346 
-0.014238384604 -0.0042912429472 0.0057398810679 0.0014067643336 0.0017883235319 -0.0057226812346 -0.0057226812346 -0.0024756200697 0.0010922558707 
-0.0057226812346 -0.0057226812346 -0.0057226812346 -0.0027913984821 -0.009291649872 0.0012020537714 0.00093399876752 0.0012020537714 -0.0030062884152 
-0.001686294859 -0.014249677762 -0.027050188603 0.0022563139467 0.012011882708 -0.054284845076 0.0082644208164 0.012011882708 0.012011882708 
0.01366396183 0.014750021401 0.012615475014 0.014750024225 0.012615835211 0.014750021401 0.013665429003 0.014750024225 0.012012412725 
0.012012412725 -0.054281529909 0.014219728824 0.0022565990714 0.012012412725 -0.014248257509 -0.031936517993 -0.0030060826314 0.0013518122375 
0.00093401756806 0.0012020753575 -0.0092907376314 -0.0027912757426 -0.0057227424592 -0.0057227424592 0.0012020753575 0.0012020753575 -0.0024755840545 
-0.0057227424592 -0.0057227424592 -0.0057227424592 0.0014066112295 0.00087994547893 -0.0042935720351 -0.01423952507 -0.0057227424592 -0.0057227424592 
0.0057397837985 0.0057397837985 -0.0099315378126 -0.014363877458 -0.014362944757 -0.034858706205 -0.034858706205 -0.034858706205 -0.035096863128 
-0.035096863128 -0.035096863128 -0.014363877458 -0.014362944757 -0.035097391605 -0.035097391605 -0.035097391605 -0.035096863128 -0.035096863128 
-0.03485853277 -0.014240616447 -0.0042912207739 -0.0099261537213 -0.035097391605 -0.035097391605 -0.03485853277 -0.03485853277 -0.0057227424592 
-0.0057227424592 -0.0027912834207 -0.0048131338081 0.00093400118123 0.0014067534663 0.0057398416682 0.0057398416682 -0.0057227424592 -0.0057227424592 
-0.0057227424592 -0.0057227424592 -0.0036784346163 0.00025347640444 0.0090839465224 0.0099799840012 0.017880808063 -0.034088564249 -0.0060362963685 
0.00093400118123 0.0012020540397 0.0010922561145 0.0017883112565 -0.0057227424592 -0.005264935578 0.0091427955825 0.0097737658412 0.017880808063 
0.017510737662 0.010018618364 -0.014012191225 0.0012020540397 0.0081390608127 0.0081390608127 0.012300507882 0.010423598546 0.010423598546 
0.0079030371595 0.0079030371595 0.0079087813199 0.0079087813199 0.010264663641 0.010264663641 0.010264663641 0.0034562753836 0.0034562753836 
0.015566276374 0.0029411617912 0.004063994219 0.0031509847374 0.012300507882 0.01723795184 0.017511061628 0.0097731505866 0.0097731505866 
0.010264663641 0.0046256720819 -0.0057226812346 0.0020667628059 -0.041412300024 -0.041412300024 -0.041412300024 0.0035304995207 0.0035304995207 
0.0037232720185 0.0020657438696 0.016708861112 0.001202084335 -0.0057226812346 0.013605180464 -0.0057226812346 -0.00092904676038 -0.0017587086794 
-0.0023333088976 0.0090341530288 0.0090341530288 0.0090341530288 0.0057397837985 -0.034858016801 -0.034858016801 -0.034858016801 -0.034858016801 
-0.035097037749 0.0054052751007 0.0063058062838 -0.035097037749 -0.03509704236 0.0073676065183 -0.03509704236 0.0054918251724 -0.034858363667 
-0.034858363667 -0.034858363667 -0.035097037749 -0.03509704236 0.0090316723704 0.0090316723704 0.0090316723704 -0.00084951378464 -0.0020319978207 
-0.00084951378464 -0.034858363667 0.0057398810679 0.0038502873555 0.0029623952141 0.0038502873555 -0.0057226812346 0.0034812961715 0.0012443322117 
0.0069356043101 -0.0057226812346 -0.013907371747 -0.0057226812346 -0.0057226812346 0.0010922558707 0.0069356043101 0.0069356043101 0.0069356043101 
-0.0057226812346 -0.001436816654 0.0021999602352 0.0021999602352 -0.001686294859 -0.002608940295 0.0027516473367 0.013604409452 -0.0066662803571 
-0.0041364651598 -0.0066662803571 0.012011882708 0.0082644208164 0.011198665943 0.011198665943 0.011198665943 0.0099977179975 0.0099977179975 
0.012011882708 0.014750021401 0.0082644208164 0.0082644208164 0.011805892263 0.011805892263 0.011806183369 0.011806183369 0.0091523183889 
0.0091523183889 0.014750024225 0.012012412725 0.0099984406739 0.0099984406739 0.0018662914297 0.0018662914297 0.014219728824 0.012012412725 
0.010271606944 0.010271606944 0.0053690762478 0.0053690762478 0.0018662914297 0.0064530634408 0.010271606944 0.010271606944 0.0028587588704 
0.0018662914297 -0.0057227424592 0.0020667504126 0.00087994547893 0.00087994547893 0.0012020753575 -0.0057227424592 -0.041411571931 -0.041411571931 
0.0043373509754 0.0043373509754 0.00087994547893 -0.0057227424592 0.013600560867 -0.041411571931 0.00087994547893 0.00087994547893 0.0057397837985 
-0.034858706205 -0.00092881493004 -0.0017582566385 0.004720693411 0.0090338515894 0.0090338515894 -0.035096863128 -0.035097391605 -0.034858706205 
-0.034858706205 -0.0023327268792 0.0090338515894 0.0054157842509 -0.035096863128 -0.035096863128 -0.035097391605 -0.035097391605 0.007367745367 
-0.034858706205 0.0065610862745 -0.03485853277 -0.03485853277 -0.03485853277 0.0057398416682 0.0090316723704 0.0090316723704 0.0054922233464 
-0.03485853277 -0.0022835934287 -0.00076035563557 -0.0057227424592 -0.0057227424592 0.0010922561145 0.0012443322117 0.0029623952141 0.0038502828288 
0.0090316723704 -0.001213847197 0.0070023065457 -0.018303657361 -0.018303657361 -0.0057227424592 -0.005264935578 0.0091427955825 0.0097737658412 
0.017510737662 0.010018618364 0.0033448655943 0.0021999635729 0.0069355948959 0.0069355948959 0.0069355948959 0.0038502828288 -0.018303657361 
-0.003665551963 -0.0045960993079 -0.0058731017091 -0.0058731017091 0.0079094010646 0.0079037002217 0.010018618364 0.011198622257 0.011198622257 
0.013604368991 0.0021999635729 0.0069355948959 -0.0058731017091 0.0079094010646 0.0079037002217 0.010018618364 0.011198622257 0.010264690204 
0.010264690204 0.010264690204 0.0040759435438 0.003798390513 0.0034520382589 0.0038069991114 0.0032823467691 0.0040759472988 0.010264663641 
0.010264663641 0.010264663641 0.015566276374 0.013947680833 0.016224248752 0.012300507882 0.020936553204 0.012300507882 0.010264690204 
0.010264663641 0.010264663641 0.0020667628059 0.020936417129 0.013605180464 0.013947679538 0.013605180464 0.017067686918 0.017999617547 
0.0077140414818 0.016708861112 0.016224248752 0.013605180464 0.013605180464 0.013605180464 0.013605180464 0.0075941996943 0.0044491015241 
0.0044491015241 0.0044491015241 0.0051048595696 0.0077140414818 0.0052678201924 0.0075941996943 0.0052678201924 0.0052678201924 0.0056273768654 
0.0063058062838 0.0063058062838 0.0063058062838 0.0054052751007 0.0073676065183 0.0061125191708 0.0061125191708 0.0061125191708 0.0063058062838 
0.0063058062838 0.0063058062838 0.0063058062838 0.0054918251724 0.0046202889072 0.0046202889072 0.0046202889072 0.0064271846383 0.0058182597988 
0.0046299336268 0.0079735321609 0.0063618686599 0.0058182597988 0.0057591319921 0.016511668525 0.0079735321609 0.01900773244 0.0034812961715 
0.0036265545832 0.0069356043101 0.0071329685187 0.0034812961715 0.0036265545832 0.0036265545832 0.0069356043101 0.0071329685187 0.011950153683 
-0.001436816654 -0.002608940295 0.015960297629 0.020789329694 -0.002608940295 -0.0027900868682 0.013604409452 0.0090316850795 -0.003174574223 
-0.003174574223 -0.0037589903494 0.0090316850795 0.0090316850795 0.0090316850795 0.0020503431331 0.0020503431331 0.0031573999532 0.0025464320654 
0.0038070048492 0.0038070091621 0.0038032203425 0.0034461798687 0.0042405680544 0.0030112959577 0.0037992204791 0.0040759406638 0.0053690762478 
0.0099629140481 0.010271606944 0.010271606944 0.0053690762478 0.0053690762478 0.0053690762478 0.010271606944 0.010271606944 0.010271606944 
0.0053690762478 0.021736138316 0.0020667504126 0.020937188699 0.0043373509754 0.012128757989 0.013600560867 0.013946851842 0.0043373509754 
0.0043373509754 0.0043373509754 0.013600560867 0.013600560867 0.013600560867 0.0043373509754 0.020145018329 0.013600560867 0.013600560867 
0.0076761856035 0.0051416464123 0.0076761856035 0.0052679163629 0.0075944325159 0.0075944325159 0.0042104607791 0.0042104607791 0.0051416464123 
0.007367745367 0.0052679163629 0.0052679163629 0.0042104607791 0.0051824013981 0.0051824013981 0.0065610862745 0.0054922233464 0.0061121136953 
0.0061121136953 0.0056268568488 0.0051824013981 0.0055415362719 0.0055415362719 0.0070550875943 0.0046300793491 0.0046204042475 0.0046204042475 
0.0061121136953 0.0055415362719 0.0061832333065 0.0082559022615 0.0061832333065 0.0070023065457 0.0069355948959 0.016511646112 0.0079735006883 
0.0079735006883 0.0046204042475 0.0082559022615 0.0046515223432 0.0046515223432 0.0046515223432 -0.003665551963 -0.0045960993079 0.013604368991 
0.015960235368 0.0069355948959 0.0071329591039 0.0071329591039 0.019008857964 0.0046515223432 -0.0045960993079 -0.0051707660158 0.0017307214175 
-0.0051707660158 0.0021738385076 0.0034486248401 0.0031574028913 0.0090316726956 0.0090316726956 0.0090316726956 0.020789295516 0.01195013791 
0.0021738385076 0.0021738385076 0.0034461808191 0.002546440877 0.0090316726956 0.010264690204 0.010264690204 0.010264690204 0.0099977282687 
0.0099977282687 0.011805846416 0.011805846416 0.0085984807694 0.0085984807694 0.004063994219 0.004063994219 0.012300522253 0.013947680833 
0.013605180464 0.013605180464 0.020936553204 0.0020667745992 0.010264690204 0.010264690204 0.010264663641 0.012300522253 0.020936417129 
0.012300522253 0.013947679538 0.015566262723 0.016224278486 0.020805838347 0.020805838347 0.0087203667568 0.016224248752 0.013605180464 
0.013605180464 0.016224278486 0.020805838347 0.020805838347 0.008720545101 0.0077140414818 0.0077140414818 0.0077140414818 0.0077140414818 
0.0087203667568 0.0075941996943 0.008720545101 0.0081125441092 0.0081125441092 0.0081125441092 0.0044491015241 0.0044491015241 0.0044491015241 
0.0056273768654 0.0056273768654 0.0056273768654 0.0063058062838 0.0063058062838 0.0063058062838 0.0046202889072 0.0046202889072 0.0046202889072 
0.0068465962737 0.0068465962737 0.0068465962737 0.0079735321609 0.0079735321609 0.0079735321609 0.0058182597988 0.0052315814077 0.0079735321609 