# vtk DataFile Version 4.0
vtk output
ASCII
DATASET POLYDATA
POINTS 1400 float
12 2 0 12 2 1 8 3 0 
8 3 1 9 3 0 9 3 1 
10 3 0 10 3 1 11 3 0 
11 3 1 13 3 1 13 3 0 
14 3 0 14 3 1 15 3 0 
15 3 1 16 3 0 16 3 1 
6 4 0 6 4 1 7 4 0 
7 4 1 17 4 1 17 4 0 
18 4 0 18 4 1 5 5 0 
5 5 1 19 5 1 19 5 0 
4 6 0 4 6 1 20 6 1 
20 6 0 4 7 0 4 7 1 
20 7 0 20 7 1 3 8 0 
3 8 1 21 8 1 21 8 0 
3 9 0 3 9 1 21 9 0 
21 9 1 3 10 0 3 10 1 
21 10 0 21 10 1 3 11 0 
3 11 1 21 11 0 21 11 1 
2 12 0 2 12 1 22 12 1 
22 12 0 3 13 0 3 13 1 
21 13 1 21 13 0 3 14 0 
3 14 1 21 14 0 21 14 1 
3 15 0 3 15 1 21 15 0 
21 15 1 3 16 0 3 16 1 
21 16 0 21 16 1 4 17 0 
4 17 1 20 17 1 20 17 0 
4 18 0 4 18 1 20 18 0 
20 18 1 5 19 0 5 19 1 
19 19 1 19 19 0 6 20 0 
6 20 1 18 20 1 18 20 0 
7 20 0 7 20 1 8 21 0 
8 21 1 17 20 0 16 21 1 
17 20 1 16 21 0 9 21 0 
9 21 1 10 21 0 10 21 1 
11 21 0 11 21 1 12 22 0 
12 22 1 13 21 0 13 21 1 
14 21 0 14 21 1 15 21 0 
15 21 1 12 2 2 8 3 2 
9 3 2 10 3 2 11 3 2 
13 3 2 14 3 2 15 3 2 
16 3 2 6 4 2 7 4 2 
17 4 2 18 4 2 5 5 2 
19 5 2 4 6 2 20 6 2 
4 7 2 20 7 2 3 8 2 
21 8 2 3 9 2 21 9 2 
3 10 2 21 10 2 3 11 2 
21 11 2 2 12 2 22 12 2 
3 13 2 21 13 2 3 14 2 
21 14 2 3 15 2 21 15 2 
3 16 2 21 16 2 4 17 2 
20 17 2 4 18 2 20 18 2 
5 19 2 19 19 2 6 20 2 
18 20 2 7 20 2 8 21 2 
16 21 2 17 20 2 9 21 2 
10 21 2 11 21 2 12 22 2 
13 21 2 14 21 2 15 21 2 
12 2 3 8 3 3 9 3 3 
10 3 3 11 3 3 13 3 3 
14 3 3 15 3 3 16 3 3 
6 4 3 7 4 3 17 4 3 
18 4 3 5 5 3 19 5 3 
4 6 3 20 6 3 4 7 3 
20 7 3 3 8 3 21 8 3 
3 9 3 21 9 3 3 10 3 
21 10 3 3 11 3 21 11 3 
2 12 3 22 12 3 3 13 3 
21 13 3 3 14 3 21 14 3 
3 15 3 21 15 3 3 16 3 
21 16 3 4 17 3 20 17 3 
4 18 3 20 18 3 5 19 3 
19 19 3 6 20 3 18 20 3 
7 20 3 8 21 3 16 21 3 
17 20 3 9 21 3 10 21 3 
11 21 3 12 22 3 13 21 3 
14 21 3 15 21 3 12 2 4 
8 3 4 9 3 4 10 3 4 
11 3 4 13 3 4 14 3 4 
15 3 4 16 3 4 6 4 4 
7 4 4 17 4 4 18 4 4 
5 5 4 19 5 4 4 6 4 
20 6 4 4 7 4 20 7 4 
3 8 4 21 8 4 3 9 4 
21 9 4 3 10 4 21 10 4 
3 11 4 21 11 4 2 12 4 
22 12 4 3 13 4 21 13 4 
3 14 4 21 14 4 3 15 4 
21 15 4 3 16 4 21 16 4 
4 17 4 20 17 4 4 18 4 
20 18 4 5 19 4 19 19 4 
6 20 4 18 20 4 7 20 4 
8 21 4 16 21 4 17 20 4 
9 21 4 10 21 4 11 21 4 
12 22 4 13 21 4 14 21 4 
15 21 4 12 2 5 8 3 5 
9 3 5 10 3 5 11 3 5 
13 3 5 14 3 5 15 3 5 
16 3 5 6 4 5 7 4 5 
17 4 5 18 4 5 5 5 5 
19 5 5 4 6 5 20 6 5 
4 7 5 20 7 5 3 8 5 
21 8 5 3 9 5 21 9 5 
3 10 5 21 10 5 3 11 5 
21 11 5 2 12 5 22 12 5 
3 13 5 21 13 5 3 14 5 
21 14 5 3 15 5 21 15 5 
3 16 5 21 16 5 4 17 5 
20 17 5 4 18 5 20 18 5 
5 19 5 19 19 5 6 20 5 
18 20 5 7 20 5 8 21 5 
16 21 5 17 20 5 9 21 5 
10 21 5 11 21 5 12 22 5 
13 21 5 14 21 5 15 21 5 
12 2 6 8 3 6 9 3 6 
10 3 6 11 3 6 13 3 6 
14 3 6 15 3 6 16 3 6 
6 4 6 7 4 6 17 4 6 
18 4 6 5 5 6 19 5 6 
4 6 6 20 6 6 4 7 6 
20 7 6 3 8 6 21 8 6 
3 9 6 21 9 6 3 10 6 
21 10 6 3 11 6 21 11 6 
2 12 6 22 12 6 3 13 6 
21 13 6 3 14 6 21 14 6 
3 15 6 21 15 6 3 16 6 
21 16 6 4 17 6 20 17 6 
4 18 6 20 18 6 5 19 6 
19 19 6 6 20 6 18 20 6 
7 20 6 8 21 6 16 21 6 
17 20 6 9 21 6 10 21 6 
11 21 6 12 22 6 13 21 6 
14 21 6 15 21 6 12 2 7 
8 3 7 9 3 7 10 3 7 
11 3 7 13 3 7 14 3 7 
15 3 7 16 3 7 6 4 7 
7 4 7 17 4 7 18 4 7 
5 5 7 19 5 7 4 6 7 
20 6 7 4 7 7 20 7 7 
3 8 7 21 8 7 3 9 7 
21 9 7 3 10 7 21 10 7 
3 11 7 21 11 7 2 12 7 
22 12 7 3 13 7 21 13 7 
3 14 7 21 14 7 3 15 7 
21 15 7 3 16 7 21 16 7 
4 17 7 20 17 7 4 18 7 
20 18 7 5 19 7 19 19 7 
6 20 7 18 20 7 7 20 7 
8 21 7 16 21 7 17 20 7 
9 21 7 10 21 7 11 21 7 
12 22 7 13 21 7 14 21 7 
15 21 7 12 2 8 8 3 8 
9 3 8 10 3 8 11 3 8 
13 3 8 14 3 8 15 3 8 
16 3 8 6 4 8 7 4 8 
17 4 8 18 4 8 5 5 8 
19 5 8 4 6 8 20 6 8 
4 7 8 20 7 8 3 8 8 
21 8 8 3 9 8 21 9 8 
3 10 8 21 10 8 3 11 8 
21 11 8 2 12 8 22 12 8 
3 13 8 21 13 8 3 14 8 
21 14 8 3 15 8 21 15 8 
3 16 8 21 16 8 4 17 8 
20 17 8 4 18 8 20 18 8 
5 19 8 19 19 8 6 20 8 
18 20 8 7 20 8 8 21 8 
16 21 8 17 20 8 9 21 8 
10 21 8 11 21 8 12 22 8 
13 21 8 14 21 8 15 21 8 
12 2 9 8 3 9 9 3 9 
10 3 9 11 3 9 13 3 9 
14 3 9 15 3 9 16 3 9 
6 4 9 7 4 9 17 4 9 
18 4 9 5 5 9 19 5 9 
4 6 9 20 6 9 4 7 9 
20 7 9 3 8 9 21 8 9 
3 9 9 21 9 9 3 10 9 
21 10 9 3 11 9 21 11 9 
2 12 9 22 12 9 3 13 9 
21 13 9 3 14 9 21 14 9 
3 15 9 21 15 9 3 16 9 
21 16 9 4 17 9 20 17 9 
4 18 9 20 18 9 5 19 9 
19 19 9 6 20 9 18 20 9 
7 20 9 8 21 9 16 21 9 
17 20 9 9 21 9 10 21 9 
11 21 9 12 22 9 13 21 9 
14 21 9 15 21 9 12 2 10 
8 3 10 9 3 10 10 3 10 
11 3 10 13 3 10 14 3 10 
15 3 10 16 3 10 6 4 10 
7 4 10 17 4 10 18 4 10 
5 5 10 19 5 10 4 6 10 
20 6 10 4 7 10 20 7 10 
3 8 10 21 8 10 3 9 10 
21 9 10 3 10 10 21 10 10 
3 11 10 21 11 10 2 12 10 
22 12 10 3 13 10 21 13 10 
3 14 10 21 14 10 3 15 10 
21 15 10 3 16 10 21 16 10 
4 17 10 20 17 10 4 18 10 
20 18 10 5 19 10 19 19 10 
6 20 10 18 20 10 7 20 10 
8 21 10 16 21 10 17 20 10 
9 21 10 10 21 10 11 21 10 
12 22 10 13 21 10 14 21 10 
15 21 10 12 2 11 8 3 11 
9 3 11 10 3 11 11 3 11 
13 3 11 14 3 11 15 3 11 
16 3 11 6 4 11 7 4 11 
17 4 11 18 4 11 5 5 11 
19 5 11 4 6 11 20 6 11 
4 7 11 20 7 11 3 8 11 
21 8 11 3 9 11 21 9 11 
3 10 11 21 10 11 3 11 11 
21 11 11 2 12 11 22 12 11 
3 13 11 21 13 11 3 14 11 
21 14 11 3 15 11 21 15 11 
3 16 11 21 16 11 4 17 11 
20 17 11 4 18 11 20 18 11 
5 19 11 19 19 11 6 20 11 
18 20 11 7 20 11 8 21 11 
16 21 11 17 20 11 9 21 11 
10 21 11 11 21 11 12 22 11 
13 21 11 14 21 11 15 21 11 
12 2 12 8 3 12 9 3 12 
10 3 12 11 3 12 13 3 12 
14 3 12 15 3 12 16 3 12 
6 4 12 7 4 12 17 4 12 
18 4 12 5 5 12 19 5 12 
4 6 12 20 6 12 4 7 12 
20 7 12 3 8 12 21 8 12 
3 9 12 21 9 12 3 10 12 
21 10 12 3 11 12 21 11 12 
2 12 12 22 12 12 3 13 12 
21 13 12 3 14 12 21 14 12 
3 15 12 21 15 12 3 16 12 
21 16 12 4 17 12 20 17 12 
4 18 12 20 18 12 5 19 12 
19 19 12 6 20 12 18 20 12 
7 20 12 8 21 12 16 21 12 
17 20 12 9 21 12 10 21 12 
11 21 12 12 22 12 13 21 12 
14 21 12 15 21 12 12 2 13 
8 3 13 9 3 13 10 3 13 
11 3 13 13 3 13 14 3 13 
15 3 13 16 3 13 6 4 13 
7 4 13 17 4 13 18 4 13 
5 5 13 19 5 13 4 6 13 
20 6 13 4 7 13 20 7 13 
3 8 13 21 8 13 3 9 13 
21 9 13 3 10 13 21 10 13 
3 11 13 21 11 13 2 12 13 
22 12 13 3 13 13 21 13 13 
3 14 13 21 14 13 3 15 13 
21 15 13 3 16 13 21 16 13 
4 17 13 20 17 13 4 18 13 
20 18 13 5 19 13 19 19 13 
6 20 13 18 20 13 7 20 13 
8 21 13 16 21 13 17 20 13 
9 21 13 10 21 13 11 21 13 
12 22 13 13 21 13 14 21 13 
15 21 13 12 2 14 8 3 14 
9 3 14 10 3 14 11 3 14 
13 3 14 14 3 14 15 3 14 
16 3 14 6 4 14 7 4 14 
17 4 14 18 4 14 5 5 14 
19 5 14 4 6 14 20 6 14 
4 7 14 20 7 14 3 8 14 
21 8 14 3 9 14 21 9 14 
3 10 14 21 10 14 3 11 14 
21 11 14 2 12 14 22 12 14 
3 13 14 21 13 14 3 14 14 
21 14 14 3 15 14 21 15 14 
3 16 14 21 16 14 4 17 14 
20 17 14 4 18 14 20 18 14 
5 19 14 19 19 14 6 20 14 
18 20 14 7 20 14 8 21 14 
16 21 14 17 20 14 9 21 14 
10 21 14 11 21 14 12 22 14 
13 21 14 14 21 14 15 21 14 
12 2 15 8 3 15 9 3 15 
10 3 15 11 3 15 13 3 15 
14 3 15 15 3 15 16 3 15 
6 4 15 7 4 15 17 4 15 
18 4 15 5 5 15 19 5 15 
4 6 15 20 6 15 4 7 15 
20 7 15 3 8 15 21 8 15 
3 9 15 21 9 15 3 10 15 
21 10 15 3 11 15 21 11 15 
2 12 15 22 12 15 3 13 15 
21 13 15 3 14 15 21 14 15 
3 15 15 21 15 15 3 16 15 
21 16 15 4 17 15 20 17 15 
4 18 15 20 18 15 5 19 15 
19 19 15 6 20 15 18 20 15 
7 20 15 8 21 15 16 21 15 
17 20 15 9 21 15 10 21 15 
11 21 15 12 22 15 13 21 15 
14 21 15 15 21 15 12 2 16 
8 3 16 9 3 16 10 3 16 
11 3 16 13 3 16 14 3 16 
15 3 16 16 3 16 6 4 16 
7 4 16 17 4 16 18 4 16 
5 5 16 19 5 16 4 6 16 
20 6 16 4 7 16 20 7 16 
3 8 16 21 8 16 3 9 16 
21 9 16 3 10 16 21 10 16 
3 11 16 21 11 16 2 12 16 
22 12 16 3 13 16 21 13 16 
3 14 16 21 14 16 3 15 16 
21 15 16 3 16 16 21 16 16 
4 17 16 20 17 16 4 18 16 
20 18 16 5 19 16 19 19 16 
6 20 16 18 20 16 7 20 16 
8 21 16 16 21 16 17 20 16 
9 21 16 10 21 16 11 21 16 
12 22 16 13 21 16 14 21 16 
15 21 16 12 2 17 8 3 17 
9 3 17 10 3 17 11 3 17 
13 3 17 14 3 17 15 3 17 
16 3 17 6 4 17 7 4 17 
17 4 17 18 4 17 5 5 17 
19 5 17 4 6 17 20 6 17 
4 7 17 20 7 17 3 8 17 
21 8 17 3 9 17 21 9 17 
3 10 17 21 10 17 3 11 17 
21 11 17 2 12 17 22 12 17 
3 13 17 21 13 17 3 14 17 
21 14 17 3 15 17 21 15 17 
3 16 17 21 16 17 4 17 17 
20 17 17 4 18 17 20 18 17 
5 19 17 19 19 17 6 20 17 
18 20 17 7 20 17 8 21 17 
16 21 17 17 20 17 9 21 17 
10 21 17 11 21 17 12 22 17 
13 21 17 14 21 17 15 21 17 
12 2 18 8 3 18 9 3 18 
10 3 18 11 3 18 13 3 18 
14 3 18 15 3 18 16 3 18 
6 4 18 7 4 18 17 4 18 
18 4 18 5 5 18 19 5 18 
4 6 18 20 6 18 4 7 18 
20 7 18 3 8 18 21 8 18 
3 9 18 21 9 18 3 10 18 
21 10 18 3 11 18 21 11 18 
2 12 18 22 12 18 3 13 18 
21 13 18 3 14 18 21 14 18 
3 15 18 21 15 18 3 16 18 
21 16 18 4 17 18 20 17 18 
4 18 18 20 18 18 5 19 18 
19 19 18 6 20 18 18 20 18 
7 20 18 8 21 18 16 21 18 
17 20 18 9 21 18 10 21 18 
11 21 18 12 22 18 13 21 18 
14 21 18 15 21 18 12 2 19 
8 3 19 9 3 19 10 3 19 
11 3 19 13 3 19 14 3 19 
15 3 19 16 3 19 6 4 19 
7 4 19 17 4 19 18 4 19 
5 5 19 19 5 19 4 6 19 
20 6 19 4 7 19 20 7 19 
3 8 19 21 8 19 3 9 19 
21 9 19 3 10 19 21 10 19 
3 11 19 21 11 19 2 12 19 
22 12 19 3 13 19 21 13 19 
3 14 19 21 14 19 3 15 19 
21 15 19 3 16 19 21 16 19 
4 17 19 20 17 19 4 18 19 
20 18 19 5 19 19 19 19 19 
6 20 19 18 20 19 7 20 19 
8 21 19 16 21 19 17 20 19 
9 21 19 10 21 19 11 21 19 
12 22 19 13 21 19 14 21 19 
15 21 19 12 2 20 8 3 20 
9 3 20 10 3 20 11 3 20 
13 3 20 14 3 20 15 3 20 
16 3 20 6 4 20 7 4 20 
17 4 20 18 4 20 5 5 20 
19 5 20 4 6 20 20 6 20 
4 7 20 20 7 20 3 8 20 
21 8 20 3 9 20 21 9 20 
3 10 20 21 10 20 3 11 20 
21 11 20 2 12 20 22 12 20 
3 13 20 21 13 20 3 14 20 
21 14 20 3 15 20 21 15 20 
3 16 20 21 16 20 4 17 20 
20 17 20 4 18 20 20 18 20 
5 19 20 19 19 20 6 20 20 
18 20 20 7 20 20 8 21 20 
16 21 20 17 20 20 9 21 20 
10 21 20 11 21 20 12 22 20 
13 21 20 14 21 20 15 21 20 
12 2 21 8 3 21 9 3 21 
10 3 21 11 3 21 13 3 21 
14 3 21 15 3 21 16 3 21 
6 4 21 7 4 21 17 4 21 
18 4 21 5 5 21 19 5 21 
4 6 21 20 6 21 4 7 21 
20 7 21 3 8 21 21 8 21 
3 9 21 21 9 21 3 10 21 
21 10 21 3 11 21 21 11 21 
2 12 21 22 12 21 3 13 21 
21 13 21 3 14 21 21 14 21 
3 15 21 21 15 21 3 16 21 
21 16 21 4 17 21 20 17 21 
4 18 21 20 18 21 5 19 21 
19 19 21 6 20 21 18 20 21 
7 20 21 8 21 21 16 21 21 
17 20 21 9 21 21 10 21 21 
11 21 21 12 22 21 13 21 21 
[...]
POINT_DATA 1400
SCALARS Scalars_ float
LOOKUP_TABLE default
1 1 1 1 1 1 1 1 1 
1 1 1 1 1 1 1 1 1 
1 1 1 1 1 1 1 1 1 
1 1 1 1 1 1 1 1 1 
1 1 1 1 1 1 1 1 1 
1 1 1 1 1 1 1 1 1 
1 1 1 1 1 1 1 1 1 
1 1 1 1 1 1 1 1 1 
1 1 1 1 1 1 1 1 1 
1 1 1 1 1 1 1 1 1 
1 1 1 1 1 1 1 1 1 
1 1 1 1 1 1 1 1 1 
1 1 1 1 1 1 1 1 1 
1 1 1 1 1 1 1 1 1 
1 1 1 1 1 1 1 1 1 
1 1 1 1 1 1 1 1 1 
1 1 1 1 1 1 1 1 1 
1 1 1 1 1 1 1 1 1 
1 1 1 1 1 1 1 1 1 
1 1 1 1 1 1 1 1 1 
1 1 1 1 1 1 1 1 1 
1 1 1 1 1 1 1 1 1 
1 1 1 1 1 1 1 1 1 
1 1 1 1 1 1 1 1 1 
1 1 1 1 1 1 1 1 1 
1 1 1 1 1 1 1 1 1 
1 1 1 1 1 1 1 1 1 
1 1 1 1 1 1 1 1 1 
1 1 1 1 1 1 1 1 1 
1 1 1 1 1 1 1 1 1 
1 1 1 1 1 1 1 1 1 
1 1 1 1 1 1 1 1 1 
1 1 1 1 1 1 1 1 1 
1 1 1 1 1 1 1 1 1 
1 1 1 1 1 1 1 1 1 
1 1 1 1 1 1 1 1 1 
1 1 1 1 1 1 1 1 1 
1 1 1 1 1 1 1 1 1 
1 1 1 1 1 1 1 1 1 
1 1 1 1 1 1 1 1 1 
1 1 1 1 1 1 1 1 1 
1 1 1 1 1 1 1 1 1 
1 1 1 1 1 1 1 1 1 
1 1 1 1 1 1 1 1 1 
1 1 1 1 1 1 1 1 1 
1 1 1 1 1 1 1 1 1 
1 1 1 1 1 1 1 1 1 
1 1 1 1 1 1 1 1 1 
1 1 1 1 1 1 1 1 1 
1 1 1 1 1 1 1 1 1 
1 1 1 1 1 1 1 1 1 
1 1 1 1 1 1 1 1 1 
1 1 1 1 1 1 1 1 1 
1 1 1 1 1 1 1 1 1 
1 1 1 1 1 1 1 1 1 
1 1 1 1 1 1 1 1 1 
1 1 1 1 1 1 1 1 1 
1 1 1 1 1 1 1 1 1 
1 1 1 1 1 1 1 1 1 
1 1 1 1 1 1 1 1 1 
1 1 1 1 1 1 1 1 1 
1 1 1 1 1 1 1 1 1 
1 1 1 1 1 1 1 1 1 
1 1 1 1 1 1 1 1 1 
1 1 1 1 1 1 1 1 1 
1 1 1 1 1 1 1 1 1 
1 1 1 1 1 1 1 1 1 
1 1 1 1 1 1 1 1 1 
1 1 1 1 1 1 1 1 1 
1 1 1 1 1 1 1 1 1 
1 1 1 1 1 1 1 1 1 
1 1 1 1 1 1 1 1 1 
1 1 1 1 1 1 1 1 1 
1 1 1 1 1 1 1 1 1 
1 1 1 1 1 1 1 1 1 
1 1 1 1 1 1 1 1 1 
1 1 1 1 1 1 1 1 1 
1 1 1 1 1 1 1 1 1 
1 1 1 1 1 1 1 1 1 
1 1 1 1 1 1 1 1 1 
1 1 1 1 1 1 1 1 1 
1 1 1 1 1 1 1 1 1 
1 1 1 1 1 1 1 1 1 
1 1 1 1 1 1 1 1 1 
1 1 1 1 1 1 1 1 1 
1 1 1 1 1 1 1 1 1 
1 1 1 1 1 1 1 1 1 
1 1 1 1 1 1 1 1 1 
1 1 1 1 1 1 1 1 1 
1 1 1 1 1 1 1 1 1 
1 1 1 1 1 1 1 1 1 
1 1 1 1 1 1 1 1 1 
1 1 1 1 1 1 1 1 1 
1 1 1 1 1 1 1 1 1 
1 1 1 1 1 1 1 1 1 
1 1 1 1 1 1 1 1 1 
1 1 1 1 1 1 1 1 1 
1 1 1 1 1 1 1 1 1 
1 1 1 1 1 1 1 1 1 
1 1 1 1 1 1 1 1 1 
1 1 1 1 1 1 1 1 1 
1 1 1 1 1 1 1 1 1 
1 1 1 1 1 1 1 1 1 
1 1 1 1 1 1 1 1 1 
1 1 1 1 1 1 1 1 1 
1 1 1 1 1 1 1 1 1 
1 1 1 1 1 1 1 1 1 
1 1 1 1 1 1 1 1 1 
1 1 1 1 1 1 1 1 1 
1 1 1 1 1 1 1 1 1 
1 1 1 1 1 1 1 1 1 
1 1 1 1 1 1 1 1 1 
1 1 1 1 1 1 1 1 1 
1 1 1 1 1 1 1 1 1 
1 1 1 1 1 1 1 1 1 
1 1 1 1 1 1 1 1 1 
1 1 1 1 1 1 1 1 1 
1 1 1 1 1 1 1 1 1 
1 1 1 1 1 1 1 1 1 
1 1 1 1 1 1 1 1 1 
1 1 1 1 1 1 1 1 1 
1 1 1 1 1 1 1 1 1 
1 1 1 1 1 1 1 1 1 
1 1 1 1 1 1 1 1 1 
1 1 1 1 1 1 1 1 1 
1 1 1 1 1 1 1 1 1 
1 1 1 1 1 1 1 1 1 
1 1 1 1 1 1 1 1 1 
1 1 1 1 1 1 1 1 1 
1 1 1 1 1 1 1 1 1 
1 1 1 1 1 1 1 1 1 
1 1 1 1 1 1 1 1 1 
1 1 1 1 1 1 1 1 1 
1 1 1 1 1 1 1 1 1 
1 1 1 1 1 1 1 1 1 
1 1 1 1 1 1 1 1 1 
1 1 1 1 1 1 1 1 1 
1 1 1 1 1 1 1 1 1 
1 1 1 1 1 1 1 1 1 
1 1 1 1 1 1 1 1 1 
1 1 1 1 1 1 1 1 1 
1 1 1 1 1 1 1 1 1 
1 1 1 1 1 1 1 1 1 
1 1 1 1 1 1 1 1 1 
1 1 1 1 1 1 1 1 1 
1 1 1 1 1 1 1 1 1 
1 1 1 1 1 1 1 1 1 
1 1 1 1 1 1 1 1 1 
1 1 1 1 1 1 1 1 1 
1 1 1 1 1 1 1 1 1 
1 1 1 1 1 1 1 1 1 
1 1 1 1 1 1 1 1 1 
1 1 1 1 1 1 1 1 1 
1 1 1 1 1 1 1 1 1 
1 1 1 1 1 1 1 1 1 
1 1 1 1 1 
VECTORS Vectors_ float
0 -0.5 0 0 -0.5 0 -0.5 -0.5 0 
-0.5 -0.5 0 0 -0.5 0 0 -0.5 0 
0 -0.5 0 0 -0.5 0 0 -0.5 0 
0 -0.5 0 0 -0.5 0 0 -0.5 0 
0 -0.5 0 0 -0.5 0 0 -0.5 0 
0 -0.5 0 0.5 -0.5 0 0.5 -0.5 0 
-0.5 -0.5 0 -0.5 -0.5 0 0 -0.5 0 
0 -0.5 0 0 -0.5 0 0 -0.5 0 
0.5 -0.5 0 0.5 -0.5 0 -0.5 -0.5 0 
-0.5 -0.5 0 0.5 -0.5 0 0.5 -0.5 0 
-0.5 -0.5 0 -0.5 -0.5 0 0.5 -0.5 0 
0.5 -0.5 0 -0.5 0 0 -0.5 0 0 
0.5 0 0 0.5 0 0 -0.5 -0.5 0 
-0.5 -0.5 0 0.5 -0.5 0 0.5 -0.5 0 
-0.5 0 0 -0.5 0 0 0.5 0 0 
0.5 0 0 -0.5 0 0 -0.5 0 0 
0.5 0 0 0.5 0 0 -0.5 0 0 
-0.5 0 0 0.5 0 0 0.5 0 0 
-0.5 0 0 -0.5 0 0 0.5 0 0 
0.5 0 0 -0.5 0 0 -0.5 0 0 
0.5 0 0 0.5 0 0 -0.5 0 0 
-0.5 0 0 0.5 0 0 0.5 0 0 
-0.5 0 0 -0.5 0 0 0.5 0 0 
0.5 0 0 -0.5 0.5 0 -0.5 0.5 0 
0.5 0.5 0 0.5 0.5 0 -0.5 0 0 
-0.5 0 0 0.5 0 0 0.5 0 0 
-0.5 0.5 0 -0.5 0.5 0 0.5 0.5 0 
0.5 0.5 0 -0.5 0.5 0 -0.5 0.5 0 
0.5 0.5 0 0.5 0.5 0 -0.5 0.5 0 
-0.5 0.5 0 0.5 0.5 0 0.5 0.5 0 
0 0.5 0 0 0.5 0 -0.5 0.5 0 
-0.5 0.5 0 0 0.5 0 0.5 0.5 0 
0 0.5 0 0.5 0.5 0 0 0.5 0 
0 0.5 0 0 0.5 0 0 0.5 0 
0 0.5 0 0 0.5 0 0 0.5 0 
0 0.5 0 0 0.5 0 0 0.5 0 
0 0.5 0 0 0.5 0 0 0.5 0 
0 0.5 0 0 -0.5 0 -0.5 -0.5 0 
0 -0.5 0 0 -0.5 0 0 -0.5 0 
0 -0.5 0 0 -0.5 0 0 -0.5 0 
0.5 -0.5 0 -0.5 -0.5 0 0 -0.5 0 
0 -0.5 0 0.5 -0.5 0 -0.5 -0.5 0 
0.5 -0.5 0 -0.5 -0.5 0 0.5 -0.5 0 
-0.5 0 0 0.5 0 0 -0.5 -0.5 0 
0.5 -0.5 0 -0.5 0 0 0.5 0 0 
-0.5 0 0 0.5 0 0 -0.5 0 0 
0.5 0 0 -0.5 0 0 0.5 0 0 
-0.5 0 0 0.5 0 0 -0.5 0 0 
0.5 0 0 -0.5 0 0 0.5 0 0 
-0.5 0.5 0 0.5 0.5 0 -0.5 0 0 
0.5 0 0 -0.5 0.5 0 0.5 0.5 0 
-0.5 0.5 0 0.5 0.5 0 -0.5 0.5 0 
0.5 0.5 0 0 0.5 0 -0.5 0.5 0 
0.5 0.5 0 0 0.5 0 0 0.5 0 
0 0.5 0 0 0.5 0 0 0.5 0 
0 0.5 0 0 0.5 0 0 0.5 0 
0 -0.5 0 -0.5 -0.5 0 0 -0.5 0 
0 -0.5 0 0 -0.5 0 0 -0.5 0 
0 -0.5 0 0 -0.5 0 0.5 -0.5 0 
-0.5 -0.5 0 0 -0.5 0 0 -0.5 0 
0.5 -0.5 0 -0.5 -0.5 0 0.5 -0.5 0 
-0.5 -0.5 0 0.5 -0.5 0 -0.5 0 0 
0.5 0 0 -0.5 -0.5 0 0.5 -0.5 0 
-0.5 0 0 0.5 0 0 -0.5 0 0 
0.5 0 0 -0.5 0 0 0.5 0 0 
-0.5 0 0 0.5 0 0 -0.5 0 0 
0.5 0 0 -0.5 0 0 0.5 0 0 
-0.5 0 0 0.5 0 0 -0.5 0.5 0 
0.5 0.5 0 -0.5 0 0 0.5 0 0 
-0.5 0.5 0 0.5 0.5 0 -0.5 0.5 0 
0.5 0.5 0 -0.5 0.5 0 0.5 0.5 0 
0 0.5 0 -0.5 0.5 0 0.5 0.5 0 
0 0.5 0 0 0.5 0 0 0.5 0 
0 0.5 0 0 0.5 0 0 0.5 0 
0 0.5 0 0 0.5 0 0 -0.5 0 
-0.5 -0.5 0 0 -0.5 0 0 -0.5 0 
0 -0.5 0 0 -0.5 0 0 -0.5 0 
0 -0.5 0 0.5 -0.5 0 -0.5 -0.5 0 
0 -0.5 0 0 -0.5 0 0.5 -0.5 0 
-0.5 -0.5 0 0.5 -0.5 0 -0.5 -0.5 0 
0.5 -0.5 0 -0.5 0 0 0.5 0 0 
-0.5 -0.5 0 0.5 -0.5 0 -0.5 0 0 
0.5 0 0 -0.5 0 0 0.5 0 0 
-0.5 0 0 0.5 0 0 -0.5 0 0 
0.5 0 0 -0.5 0 0 0.5 0 0 
-0.5 0 0 0.5 0 0 -0.5 0 0 
0.5 0 0 -0.5 0.5 0 0.5 0.5 0 
-0.5 0 0 0.5 0 0 -0.5 0.5 0 
0.5 0.5 0 -0.5 0.5 0 0.5 0.5 0 
-0.5 0.5 0 0.5 0.5 0 0 0.5 0 
-0.5 0.5 0 0.5 0.5 0 0 0.5 0 
0 0.5 0 0 0.5 0 0 0.5 0 
0 0.5 0 0 0.5 0 0 0.5 0 
0 0.5 0 0 -0.5 0 -0.5 -0.5 0 
0 -0.5 0 0 -0.5 0 0 -0.5 0 
0 -0.5 0 0 -0.5 0 0 -0.5 0 
0.5 -0.5 0 -0.5 -0.5 0 0 -0.5 0 
0 -0.5 0 0.5 -0.5 0 -0.5 -0.5 0 
0.5 -0.5 0 -0.5 -0.5 0 0.5 -0.5 0 
-0.5 0 0 0.5 0 0 -0.5 -0.5 0 
0.5 -0.5 0 -0.5 0 0 0.5 0 0 
-0.5 0 0 0.5 0 0 -0.5 0 0 
0.5 0 0 -0.5 0 0 0.5 0 0 
-0.5 0 0 0.5 0 0 -0.5 0 0 
0.5 0 0 -0.5 0 0 0.5 0 0 
-0.5 0.5 0 0.5 0.5 0 -0.5 0 0 
0.5 0 0 -0.5 0.5 0 0.5 0.5 0 
-0.5 0.5 0 0.5 0.5 0 -0.5 0.5 0 
0.5 0.5 0 0 0.5 0 -0.5 0.5 0 
0.5 0.5 0 0 0.5 0 0 0.5 0 
0 0.5 0 0 0.5 0 0 0.5 0 
0 0.5 0 0 0.5 0 0 0.5 0 
0 -0.5 0 -0.5 -0.5 0 0 -0.5 0 
0 -0.5 0 0 -0.5 0 0 -0.5 0 
0 -0.5 0 0 -0.5 0 0.5 -0.5 0 
-0.5 -0.5 0 0 -0.5 0 0 -0.5 0 
0.5 -0.5 0 -0.5 -0.5 0 0.5 -0.5 0 
-0.5 -0.5 0 0.5 -0.5 0 -0.5 0 0 
0.5 0 0 -0.5 -0.5 0 0.5 -0.5 0 
-0.5 0 0 0.5 0 0 -0.5 0 0 
0.5 0 0 -0.5 0 0 0.5 0 0 
-0.5 0 0 0.5 0 0 -0.5 0 0 
0.5 0 0 -0.5 0 0 0.5 0 0 
-0.5 0 0 0.5 0 0 -0.5 0.5 0 
0.5 0.5 0 -0.5 0 0 0.5 0 0 
-0.5 0.5 0 0.5 0.5 0 -0.5 0.5 0 
0.5 0.5 0 -0.5 0.5 0 0.5 0.5 0 
0 0.5 0 -0.5 0.5 0 0.5 0.5 0 
0 0.5 0 0 0.5 0 0 0.5 0 
0 0.5 0 0 0.5 0 0 0.5 0 
0 0.5 0 0 0.5 0 0 -0.5 0 
-0.5 -0.5 0 0 -0.5 0 0 -0.5 0 
0 -0.5 0 0 -0.5 0 0 -0.5 0 
0 -0.5 0 0.5 -0.5 0 -0.5 -0.5 0 
0 -0.5 0 0 -0.5 0 0.5 -0.5 0 
-0.5 -0.5 0 0.5 -0.5 0 -0.5 -0.5 0 
0.5 -0.5 0 -0.5 0 0 0.5 0 0 
-0.5 -0.5 0 0.5 -0.5 0 -0.5 0 0 
0.5 0 0 -0.5 0 0 0.5 0 0 
-0.5 0 0 0.5 0 0 -0.5 0 0 
0.5 0 0 -0.5 0 0 0.5 0 0 
-0.5 0 0 0.5 0 0 -0.5 0 0 
0.5 0 0 -0.5 0.5 0 0.5 0.5 0 
-0.5 0 0 0.5 0 0 -0.5 0.5 0 
0.5 0.5 0 -0.5 0.5 0 0.5 0.5 0 
-0.5 0.5 0 0.5 0.5 0 0 0.5 0 
-0.5 0.5 0 0.5 0.5 0 0 0.5 0 
0 0.5 0 0 0.5 0 0 0.5 0 
0 0.5 0 0 0.5 0 0 0.5 0 
0 0.5 0 0 -0.5 0 -0.5 -0.5 0 
0 -0.5 0 0 -0.5 0 0 -0.5 0 
0 -0.5 0 0 -0.5 0 0 -0.5 0 
0.5 -0.5 0 -0.5 -0.5 0 0 -0.5 0 
0 -0.5 0 0.5 -0.5 0 -0.5 -0.5 0 
0.5 -0.5 0 -0.5 -0.5 0 0.5 -0.5 0 
-0.5 0 0 0.5 0 0 -0.5 -0.5 0 
0.5 -0.5 0 -0.5 0 0 0.5 0 0 
-0.5 0 0 0.5 0 0 -0.5 0 0 
0.5 0 0 -0.5 0 0 0.5 0 0 
-0.5 0 0 0.5 0 0 -0.5 0 0 
0.5 0 0 -0.5 0 0 0.5 0 0 
-0.5 0.5 0 0.5 0.5 0 -0.5 0 0 
0.5 0 0 -0.5 0.5 0 0.5 0.5 0 
-0.5 0.5 0 0.5 0.5 0 -0.5 0.5 0 
0.5 0.5 0 0 0.5 0 -0.5 0.5 0 
0.5 0.5 0 0 0.5 0 0 0.5 0 
0 0.5 0 0 0.5 0 0 0.5 0 
0 0.5 0 0 0.5 0 0 0.5 0 
0 -0.5 0 -0.5 -0.5 0 0 -0.5 0 
0 -0.5 0 0 -0.5 0 0 -0.5 0 
0 -0.5 0 0 -0.5 0 0.5 -0.5 0 
-0.5 -0.5 0 0 -0.5 0 0 -0.5 0 
0.5 -0.5 0 -0.5 -0.5 0 0.5 -0.5 0 
-0.5 -0.5 0 0.5 -0.5 0 -0.5 0 0 
0.5 0 0 -0.5 -0.5 0 0.5 -0.5 0 
-0.5 0 0 0.5 0 0 -0.5 0 0 
0.5 0 0 -0.5 0 0 0.5 0 0 
-0.5 0 0 0.5 0 0 -0.5 0 0 
0.5 0 0 -0.5 0 0 0.5 0 0 
-0.5 0 0 0.5 0 0 -0.5 0.5 0 
0.5 0.5 0 -0.5 0 0 0.5 0 0 
-0.5 0.5 0 0.5 0.5 0 -0.5 0.5 0 
0.5 0.5 0 -0.5 0.5 0 0.5 0.5 0 
0 0.5 0 -0.5 0.5 0 0.5 0.5 0 
0 0.5 0 0 0.5 0 0 0.5 0 
0 0.5 0 0 0.5 0 0 0.5 0 
0 0.5 0 0 0.5 0 0 -0.5 0 
-0.5 -0.5 0 0 -0.5 0 0 -0.5 0 
0 -0.5 0 0 -0.5 0 0 -0.5 0 
0 -0.5 0 0.5 -0.5 0 -0.5 -0.5 0 
0 -0.5 0 0 -0.5 0 0.5 -0.5 0 
-0.5 -0.5 0 0.5 -0.5 0 -0.5 -0.5 0 
0.5 -0.5 0 -0.5 0 0 0.5 0 0 
-0.5 -0.5 0 0.5 -0.5 0 -0.5 0 0 
0.5 0 0 -0.5 0 0 0.5 0 0 
-0.5 0 0 0.5 0 0 -0.5 0 0 
0.5 0 0 -0.5 0 0 0.5 0 0 
-0.5 0 0 0.5 0 0 -0.5 0 0 
0.5 0 0 -0.5 0.5 0 0.5 0.5 0 
-0.5 0 0 0.5 0 0 -0.5 0.5 0 
0.5 0.5 0 -0.5 0.5 0 0.5 0.5 0 
-0.5 0.5 0 0.5 0.5 0 0 0.5 0 
-0.5 0.5 0 0.5 0.5 0 0 0.5 0 
0 0.5 0 0 0.5 0 0 0.5 0 
0 0.5 0 0 0.5 0 0 0.5 0 
0 0.5 0 0 -0.5 0 -0.5 -0.5 0 
0 -0.5 0 0 -0.5 0 0 -0.5 0 
0 -0.5 0 0 -0.5 0 0 -0.5 0 
0.5 -0.5 0 -0.5 -0.5 0 0 -0.5 0 
0 -0.5 0 0.5 -0.5 0 -0.5 -0.5 0 
0.5 -0.5 0 -0.5 -0.5 0 0.5 -0.5 0 
-0.5 0 0 0.5 0 0 -0.5 -0.5 0 
0.5 -0.5 0 -0.5 0 0 0.5 0 0 
-0.5 0 0 0.5 0 0 -0.5 0 0 
0.5 0 0 -0.5 0 0 0.5 0 0 
-0.5 0 0 0.5 0 0 -0.5 0 0 
0.5 0 0 -0.5 0 0 0.5 0 0 
-0.5 0.5 0 0.5 0.5 0 -0.5 0 0 
0.5 0 0 -0.5 0.5 0 0.5 0.5 0 
-0.5 0.5 0 0.5 0.5 0 -0.5 0.5 0 
0.5 0.5 0 0 0.5 0 -0.5 0.5 0 
0.5 0.5 0 0 0.5 0 0 0.5 0 
0 0.5 0 0 0.5 0 0 0.5 0 
0 0.5 0 0 0.5 0 0 0.5 0 
0 -0.5 0 -0.5 -0.5 0 0 -0.5 0 
0 -0.5 0 0 -0.5 0 0 -0.5 0 
0 -0.5 0 0 -0.5 0 0.5 -0.5 0 
-0.5 -0.5 0 0 -0.5 0 0 -0.5 0 
0.5 -0.5 0 -0.5 -0.5 0 0.5 -0.5 0 
-0.5 -0.5 0 0.5 -0.5 0 -0.5 0 0 
0.5 0 0 -0.5 -0.5 0 0.5 -0.5 0 
-0.5 0 0 0.5 0 0 -0.5 0 0 
0.5 0 0 -0.5 0 0 0.5 0 0 
-0.5 0 0 0.5 0 0 -0.5 0 0 
0.5 0 0 -0.5 0 0 0.5 0 0 
-0.5 0 0 0.5 0 0 -0.5 0.5 0 
0.5 0.5 0 -0.5 0 0 0.5 0 0 
-0.5 0.5 0 0.5 0.5 0 -0.5 0.5 0 
0.5 0.5 0 -0.5 0.5 0 0.5 0.5 0 
0 0.5 0 -0.5 0.5 0 0.5 0.5 0 
0 0.5 0 0 0.5 0 0 0.5 0 
0 0.5 0 0 0.5 0 0 0.5 0 
0 0.5 0 0 0.5 0 0 -0.5 0 
-0.5 -0.5 0 0 -0.5 0 0 -0.5 0 
0 -0.5 0 0 -0.5 0 0 -0.5 0 
0 -0.5 0 0.5 -0.5 0 -0.5 -0.5 0 
0 -0.5 0 0 -0.5 0 0.5 -0.5 0 
-0.5 -0.5 0 0.5 -0.5 0 -0.5 -0.5 0 
0.5 -0.5 0 -0.5 0 0 0.5 0 0 
-0.5 -0.5 0 0.5 -0.5 0 -0.5 0 0 
0.5 0 0 -0.5 0 0 0.5 0 0 
-0.5 0 0 0.5 0 0 -0.5 0 0 
0.5 0 0 -0.5 0 0 0.5 0 0 
-0.5 0 0 0.5 0 0 -0.5 0 0 
0.5 0 0 -0.5 0.5 0 0.5 0.5 0 
-0.5 0 0 0.5 0 0 -0.5 0.5 0 
0.5 0.5 0 -0.5 0.5 0 0.5 0.5 0 
-0.5 0.5 0 0.5 0.5 0 0 0.5 0 
-0.5 0.5 0 0.5 0.5 0 0 0.5 0 
0 0.5 0 0 0.5 0 0 0.5 0 
0 0.5 0 0 0.5 0 0 0.5 0 
0 0.5 0 0 -0.5 0 -0.5 -0.5 0 
0 -0.5 0 0 -0.5 0 0 -0.5 0 
0 -0.5 0 0 -0.5 0 0 -0.5 0 
0.5 -0.5 0 -0.5 -0.5 0 0 -0.5 0 
0 -0.5 0 0.5 -0.5 0 -0.5 -0.5 0 
0.5 -0.5 0 -0.5 -0.5 0 0.5 -0.5 0 
-0.5 0 0 0.5 0 0 -0.5 -0.5 0 
0.5 -0.5 0 -0.5 0 0 0.5 0 0 
-0.5 0 0 0.5 0 0 -0.5 0 0 
0.5 0 0 -0.5 0 0 0.5 0 0 
-0.5 0 0 0.5 0 0 -0.5 0 0 
0.5 0 0 -0.5 0 0 0.5 0 0 
-0.5 0.5 0 0.5 0.5 0 -0.5 0 0 
0.5 0 0 -0.5 0.5 0 0.5 0.5 0 
-0.5 0.5 0 0.5 0.5 0 -0.5 0.5 0 
0.5 0.5 0 0 0.5 0 -0.5 0.5 0 
0.5 0.5 0 0 0.5 0 0 0.5 0 
0 0.5 0 0 0.5 0 0 0.5 0 
0 0.5 0 0 0.5 0 0 0.5 0 
0 -0.5 0 -0.5 -0.5 0 0 -0.5 0 
0 -0.5 0 0 -0.5 0 0 -0.5 0 
0 -0.5 0 0 -0.5 0 0.5 -0.5 0 
-0.5 -0.5 0 0 -0.5 0 0 -0.5 0 
0.5 -0.5 0 -0.5 -0.5 0 0.5 -0.5 0 
-0.5 -0.5 0 0.5 -0.5 0 -0.5 0 0 
0.5 0 0 -0.5 -0.5 0 0.5 -0.5 0 
-0.5 0 0 0.5 0 0 -0.5 0 0 
0.5 0 0 -0.5 0 0 0.5 0 0 
-0.5 0 0 0.5 0 0 -0.5 0 0 
0.5 0 0 -0.5 0 0 0.5 0 0 
-0.5 0 0 0.5 0 0 -0.5 0.5 0 
0.5 0.5 0 -0.5 0 0 0.5 0 0 
-0.5 0.5 0 0.5 0.5 0 -0.5 0.5 0 
0.5 0.5 0 -0.5 0.5 0 0.5 0.5 0 
0 0.5 0 -0.5 0.5 0 0.5 0.5 0 
0 0.5 0 0 0.5 0 0 0.5 0 
0 0.5 0 0 0.5 0 0 0.5 0 
0 0.5 0 0 0.5 0 0 -0.5 0 
-0.5 -0.5 0 0 -0.5 0 0 -0.5 0 
0 -0.5 0 0 -0.5 0 0 -0.5 0 
0 -0.5 0 0.5 -0.5 0 -0.5 -0.5 0 
0 -0.5 0 0 -0.5 0 0.5 -0.5 0 
-0.5 -0.5 0 0.5 -0.5 0 -0.5 -0.5 0 
0.5 -0.5 0 -0.5 0 0 0.5 0 0 
-0.5 -0.5 0 0.5 -0.5 0 -0.5 0 0 
0.5 0 0 -0.5 0 0 0.5 0 0 
-0.5 0 0 0.5 0 0 -0.5 0 0 
0.5 0 0 -0.5 0 0 0.5 0 0 
-0.5 0 0 0.5 0 0 -0.5 0 0 
0.5 0 0 -0.5 0.5 0 0.5 0.5 0 
-0.5 0 0 0.5 0 0 -0.5 0.5 0 
0.5 0.5 0 -0.5 0.5 0 0.5 0.5 0 
-0.5 0.5 0 0.5 0.5 0 0 0.5 0 
-0.5 0.5 0 0.5 0.5 0 0 0.5 0 
0 0.5 0 0 0.5 0 0 0.5 0 
0 0.5 0 0 0.5 0 0 0.5 0 
0 0.5 0 0 -0.5 0 -0.5 -0.5 0 
0 -0.5 0 0 -0.5 0 0 -0.5 0 
0 -0.5 0 0 -0.5 0 0 -0.5 0 
0.5 -0.5 0 -0.5 -0.5 0 0 -0.5 0 
0 -0.5 0 0.5 -0.5 0 -0.5 -0.5 0 
0.5 -0.5 0 -0.5 -0.5 0 0.5 -0.5 0 
-0.5 0 0 0.5 0 0 -0.5 -0.5 0 
0.5 -0.5 0 -0.5 0 0 0.5 0 0 
-0.5 0 0 0.5 0 0 -0.5 0 0 
0.5 0 0 -0.5 0 0 0.5 0 0 
-0.5 0 0 0.5 0 0 -0.5 0 0 
0.5 0 0 -0.5 0 0 0.5 0 0 
-0.5 0.5 0 0.5 0.5 0 -0.5 0 0 
0.5 0 0 -0.5 0.5 0 0.5 0.5 0 
-0.5 0.5 0 0.5 0.5 0 -0.5 0.5 0 
0.5 0.5 0 0 0.5 0 -0.5 0.5 0 
0.5 0.5 0 0 0.5 0 0 0.5 0 
0 0.5 0 0 0.5 0 0 0.5 0 
0 0.5 0 0 0.5 0 0 0.5 0 
0 -0.5 0 -0.5 -0.5 0 0 -0.5 0 
0 -0.5 0 0 -0.5 0 0 -0.5 0 
0 -0.5 0 0 -0.5 0 0.5 -0.5 0 
-0.5 -0.5 0 0 -0.5 0 0 -0.5 0 
0.5 -0.5 0 -0.5 -0.5 0 0.5 -0.5 0 
-0.5 -0.5 0 0.5 -0.5 0 -0.5 0 0 
0.5 0 0 -0.5 -0.5 0 0.5 -0.5 0 
-0.5 0 0 0.5 0 0 -0.5 0 0 
0.5 0 0 -0.5 0 0 0.5 0 0 
-0.5 0 0 0.5 0 0 -0.5 0 0 
0.5 0 0 -0.5 0 0 0.5 0 0 
-0.5 0 0 0.5 0 0 -0.5 0.5 0 
0.5 0.5 0 -0.5 0 0 0.5 0 0 
-0.5 0.5 0 0.5 0.5 0 -0.5 0.5 0 
0.5 0.5 0 -0.5 0.5 0 0.5 0.5 0 
0 0.5 0 -0.5 0.5 0 0.5 0.5 0 
0 0.5 0 0 0.5 0 0 0.5 0 
0 0.5 0 0 0.5 0 0 0.5 0 
0 0.5 0 0 0.5 0 0 -0.5 0 
-0.5 -0.5 0 0 -0.5 0 0 -0.5 0 
0 -0.5 0 0 -0.5 0 0 -0.5 0 
0 -0.5 0 0.5 -0.5 0 -0.5 -0.5 0 
0 -0.5 0 0 -0.5 0 0.5 -0.5 0 
-0.5 -0.5 0 0.5 -0.5 0 -0.5 -0.5 0 
0.5 -0.5 0 -0.5 0 0 0.5 0 0 
-0.5 -0.5 0 0.5 -0.5 0 -0.5 0 0 
0.5 0 0 -0.5 0 0 0.5 0 0 
-0.5 0 0 0.5 0 0 -0.5 0 0 
0.5 0 0 -0.5 0 0 0.5 0 0 
-0.5 0 0 0.5 0 0 -0.5 0 0 
0.5 0 0 -0.5 0.5 0 0.5 0.5 0 
-0.5 0 0 0.5 0 0 -0.5 0.5 0 
0.5 0.5 0 -0.5 0.5 0 0.5 0.5 0 
-0.5 0.5 0 0.5 0.5 0 0 0.5 0 
-0.5 0.5 0 0.5 0.5 0 0 0.5 0 
0 0.5 0 0 0.5 0 0 0.5 0 
0 0.5 0 0 0.5 0 0 0.5 0 
0 0.5 0 0 -0.5 0 -0.5 -0.5 0 
0 -0.5 0 0 -0.5 0 0 -0.5 0 
0 -0.5 0 0 -0.5 0 0 -0.5 0 
0.5 -0.5 0 -0.5 -0.5 0 0 -0.5 0 
0 -0.5 0 0.5 -0.5 0 -0.5 -0.5 0 
0.5 -0.5 0 -0.5 -0.5 0 0.5 -0.5 0 
-0.5 0 0 0.5 0 0 -0.5 -0.5 0 
0.5 -0.5 0 -0.5 0 0 0.5 0 0 
-0.5 0 0 0.5 0 0 -0.5 0 0 
0.5 0 0 -0.5 0 0 0.5 0 0 
-0.5 0 0 0.5 0 0 -0.5 0 0 
0.5 0 0 -0.5 0 0 0.5 0 0 
-0.5 0.5 0 0.5 0.5 0 -0.5 0 0 
0.5 0 0 -0.5 0.5 0 0.5 0.5 0 
-0.5 0.5 0 0.5 0.5 0 -0.5 0.5 0 
0.5 0.5 0 0 0.5 0 -0.5 0.5 0 
0.5 0.5 0 0 0.5 0 0 0.5 0 
0 0.5 0 0 0.5 0 0 0.5 0 
0 0.5 0 0 0.5 0 0 0.5 0 
0 -0.5 0 -0.5 -0.5 0 0 -0.5 0 
0 -0.5 0 0 -0.5 0 0 -0.5 0 
0 -0.5 0 0 -0.5 0 0.5 -0.5 0 
-0.5 -0.5 0 0 -0.5 0 0 -0.5 0 
0.5 -0.5 0 -0.5 -0.5 0 0.5 -0.5 0 
-0.5 -0.5 0 0.5 -0.5 0 -0.5 0 0 
0.5 0 0 -0.5 -0.5 0 0.5 -0.5 0 
-0.5 0 0 0.5 0 0 -0.5 0 0 
0.5 0 0 -0.5 0 0 0.5 0 0 
-0.5 0 0 0.5 0 0 -0.5 0 0 
0.5 0 0 -0.5 0 0 0.5 0 0 
-0.5 0 0 0.5 0 0 -0.5 0.5 0 
0.5 0.5 0 -0.5 0 0 0.5 0 0 
-0.5 0.5 0 0.5 0.5 0 -0.5 0.5 0 
0.5 0.5 0 -0.5 0.5 0 0.5 0.5 0 
0 0.5 0 -0.5 0.5 0 0.5 0.5 0 
0 0.5 0 0 0.5 0 0 0.5 0 
0 0.5 0 0 0.5 0 0 0.5 0 
0 0.5 0 0 0.5 0 0 -0.5 0 
-0.5 -0.5 0 0 -0.5 0 0 -0.5 0 
0 -0.5 0 0 -0.5 0 0 -0.5 0 
0 -0.5 0 0.5 -0.5 0 -0.5 -0.5 0 
0 -0.5 0 0 -0.5 0 0.5 -0.5 0 
-0.5 -0.5 0 0.5 -0.5 0 -0.5 -0.5 0 
0.5 -0.5 0 -0.5 0 0 0.5 0 0 
-0.5 -0.5 0 0.5 -0.5 0 -0.5 0 0 
0.5 0 0 -0.5 0 0 0.5 0 0 
-0.5 0 0 0.5 0 0 -0.5 0 0 
0.5 0 0 -0.5 0 0 0.5 0 0 
-0.5 0 0 0.5 0 0 -0.5 0 0 
0.5 0 0 -0.5 0.5 0 0.5 0.5 0 
-0.5 0 0 0.5 0 0 -0.5 0.5 0 
0.5 0.5 0 -0.5 0.5 0 0.5 0.5 0 
-0.5 0.5 0 0.5 0.5 0 0 0.5 0 
-0.5 0.5 0 0.5 0.5 0 0 0.5 0 
0 0.5 0 0 0.5 0 0 0.5 0 
0 0.5 0 0 0.5 0 0 0.5 0 
0 0.5 0 0 -0.5 0 -0.5 -0.5 0 
0 -0.5 0 0 -0.5 0 0 -0.5 0 
0 -0.5 0 0 -0.5 0 0 -0.5 0 
0.5 -0.5 0 -0.5 -0.5 0 0 -0.5 0 
0 -0.5 0 0.5 -0.5 0 -0.5 -0.5 0 
0.5 -0.5 0 -0.5 -0.5 0 0.5 -0.5 0 
-0.5 0 0 0.5 0 0 -0.5 -0.5 0 
0.5 -0.5 0 -0.5 0 0 0.5 0 0 
-0.5 0 0 0.5 0 0 -0.5 0 0 
0.5 0 0 -0.5 0 0 0.5 0 0 
-0.5 0 0 0.5 0 0 -0.5 0 0 
0.5 0 0 -0.5 0 0 0.5 0 0 
-0.5 0.5 0 0.5 0.5 0 -0.5 0 0 
0.5 0 0 -0.5 0.5 0 0.5 0.5 0 
-0.5 0.5 0 0.5 0.5 0 -0.5 0.5 0 
0.5 0.5 0 0 0.5 0 -0.5 0.5 0 
0.5 0.5 0 0 0.5 0 0 0.5 0 
0 0.5 0 0 0.5 0 0 0.5 0 
0 0.5 0 0 0.5 0 0 0.5 0 
0 -0.5 0 -0.5 -0.5 0 0 -0.5 0 
0 -0.5 0 0 -0.5 0 0 -0.5 0 
0 -0.5 0 0 -0.5 0 0.5 -0.5 0 
-0.5 -0.5 0 0 -0.5 0 0 -0.5 0 
0.5 -0.5 0 -0.5 -0.5 0 0.5 -0.5 0 
-0.5 -0.5 0 0.5 -0.5 0 -0.5 0 0 
0.5 0 0 -0.5 -0.5 0 0.5 -0.5 0 
-0.5 0 0 0.5 0 0 -0.5 0 0 
0.5 0 0 -0.5 0 0 0.5 0 0 
-0.5 0 0 0.5 0 0 -0.5 0 0 
0.5 0 0 -0.5 0 0 0.5 0 0 
-0.5 0 0 0.5 0 0 -0.5 0.5 0 
0.5 0.5 0 -0.5 0 0 0.5 0 0 
-0.5 0.5 0 0.5 0.5 0 -0.5 0.5 0 
0.5 0.5 0 -0.5 0.5 0 0.5 0.5 0 
0 0.5 0 -0.5 0.5 0 0.5 0.5 0 
0 0.5 0 0 0.5 0 0 0.5 0 
0 0.5 0 0 0.5 0 0 0.5 0 
0 0.5 0 0 0.5 0 
NORMALS Normals_ float
-0 1 -0 -0 1 -0 0.707107 0.707107 -0 
0.707107 0.707107 -0 -0 1 -0 -0 1 -0 
-0 1 -0 -0 1 -0 -0 1 -0 
-0 1 -0 -0 1 -0 -0 1 -0 
-0 1 -0 -0 1 -0 -0 1 -0 
-0 1 -0 -0.707107 0.707107 -0 -0.707107 0.707107 -0 
0.707107 0.707107 -0 0.707107 0.707107 -0 -0 1 -0 
-0 1 -0 -0 1 -0 -0 1 -0 
-0.707107 0.707107 -0 -0.707107 0.707107 -0 0.707107 0.707107 -0 
0.707107 0.707107 -0 -0.707107 0.707107 -0 -0.707107 0.707107 -0 
0.707107 0.707107 -0 0.707107 0.707107 -0 -0.707107 0.707107 -0 
-0.707107 0.707107 -0 1 -0 -0 1 -0 -0 
-1 -0 -0 -1 -0 -0 0.707107 0.707107 -0 
0.707107 0.707107 -0 -0.707107 0.707107 -0 -0.707107 0.707107 -0 
1 -0 -0 1 -0 -0 -1 -0 -0 
-1 -0 -0 1 -0 -0 1 -0 -0 
-1 -0 -0 -1 -0 -0 1 -0 -0 
1 -0 -0 -1 -0 -0 -1 -0 -0 
1 -0 -0 1 -0 -0 -1 -0 -0 
-1 -0 -0 1 -0 -0 1 -0 -0 
-1 -0 -0 -1 -0 -0 1 -0 -0 
1 -0 -0 -1 -0 -0 -1 -0 -0 
1 -0 -0 1 -0 -0 -1 -0 -0 
-1 -0 -0 0.707107 -0.707107 -0 0.707107 -0.707107 -0 
-0.707107 -0.707107 -0 -0.707107 -0.707107 -0 1 -0 -0 
1 -0 -0 -1 -0 -0 -1 -0 -0 
0.707107 -0.707107 -0 0.707107 -0.707107 -0 -0.707107 -0.707107 -0 
-0.707107 -0.707107 -0 0.707107 -0.707107 -0 0.707107 -0.707107 -0 
-0.707107 -0.707107 -0 -0.707107 -0.707107 -0 0.707107 -0.707107 -0 
0.707107 -0.707107 -0 -0.707107 -0.707107 -0 -0.707107 -0.707107 -0 
-0 -1 -0 -0 -1 -0 0.707107 -0.707107 -0 
0.707107 -0.707107 -0 -0 -1 -0 -0.707107 -0.707107 -0 
-0 -1 -0 -0.707107 -0.707107 -0 -0 -1 -0 
-0 -1 -0 -0 -1 -0 -0 -1 -0 
-0 -1 -0 -0 -1 -0 -0 -1 -0 
-0 -1 -0 -0 -1 -0 -0 -1 -0 
-0 -1 -0 -0 -1 -0 -0 -1 -0 
-0 -1 -0 -0 1 -0 0.707107 0.707107 -0 
-0 1 -0 -0 1 -0 -0 1 -0 
-0 1 -0 -0 1 -0 -0 1 -0 
-0.707107 0.707107 -0 0.707107 0.707107 -0 -0 1 -0 
-0 1 -0 -0.707107 0.707107 -0 0.707107 0.707107 -0 
-0.707107 0.707107 -0 0.707107 0.707107 -0 -0.707107 0.707107 -0 
1 -0 -0 -1 -0 -0 0.707107 0.707107 -0 
-0.707107 0.707107 -0 1 -0 -0 -1 -0 -0 
1 -0 -0 -1 -0 -0 1 -0 -0 
-1 -0 -0 1 -0 -0 -1 -0 -0 
1 -0 -0 -1 -0 -0 1 -0 -0 
-1 -0 -0 1 -0 -0 -1 -0 -0 
0.707107 -0.707107 -0 -0.707107 -0.707107 -0 1 -0 -0 
-1 -0 -0 0.707107 -0.707107 -0 -0.707107 -0.707107 -0 
0.707107 -0.707107 -0 -0.707107 -0.707107 -0 0.707107 -0.707107 -0 
-0.707107 -0.707107 -0 -0 -1 -0 0.707107 -0.707107 -0 
-0.707107 -0.707107 -0 -0 -1 -0 -0 -1 -0 
-0 -1 -0 -0 -1 -0 -0 -1 -0 
-0 -1 -0 -0 -1 -0 -0 -1 -0 
-0 1 -0 0.707107 0.707107 -0 -0 1 -0 
-0 1 -0 -0 1 -0 -0 1 -0 
-0 1 -0 -0 1 -0 -0.707107 0.707107 -0 
0.707107 0.707107 -0 -0 1 -0 -0 1 -0 
-0.707107 0.707107 -0 0.707107 0.707107 -0 -0.707107 0.707107 -0 
0.707107 0.707107 -0 -0.707107 0.707107 -0 1 -0 -0 
-1 -0 -0 0.707107 0.707107 -0 -0.707107 0.707107 -0 
1 -0 -0 -1 -0 -0 1 -0 -0 
-1 -0 -0 1 -0 -0 -1 -0 -0 
1 -0 -0 -1 -0 -0 1 -0 -0 
-1 -0 -0 1 -0 -0 -1 -0 -0 
1 -0 -0 -1 -0 -0 0.707107 -0.707107 -0 
-0.707107 -0.707107 -0 1 -0 -0 -1 -0 -0 
0.707107 -0.707107 -0 -0.707107 -0.707107 -0 0.707107 -0.707107 -0 
-0.707107 -0.707107 -0 0.707107 -0.707107 -0 -0.707107 -0.707107 -0 
-0 -1 -0 0.707107 -0.707107 -0 -0.707107 -0.707107 -0 
-0 -1 -0 -0 -1 -0 -0 -1 -0 
-0 -1 -0 -0 -1 -0 -0 -1 -0 
-0 -1 -0 -0 -1 -0 -0 1 -0 
0.707107 0.707107 -0 -0 1 -0 -0 1 -0 
-0 1 -0 -0 1 -0 -0 1 -0 
-0 1 -0 -0.707107 0.707107 -0 0.707107 0.707107 -0 
-0 1 -0 -0 1 -0 -0.707107 0.707107 -0 
0.707107 0.707107 -0 -0.707107 0.707107 -0 0.707107 0.707107 -0 